 Entering Gaussian System, Link 0=/software/g09/g09/g09
 Initial command:
 /software/g09/g09/l1.exe /DATA/MDTopo/4plb_Nat/WBOB/tleap/Gau-4681.inp -scrdir=/DATA/MDTopo/4plb_Nat/WBOB/tleap/
 Entering Link 1 = /software/g09/g09/l1.exe PID=      4683.
  
 Copyright (c) 1988,1990,1992,1993,1995,1998,2003,2009, Gaussian, Inc.
                  All Rights Reserved.
  
 This is part of the Gaussian(R) 09 program.  It is based on
 the Gaussian(R) 03 system (copyright 2003, Gaussian, Inc.),
 the Gaussian(R) 98 system (copyright 1998, Gaussian, Inc.),
 the Gaussian(R) 94 system (copyright 1995, Gaussian, Inc.),
 the Gaussian 92(TM) system (copyright 1992, Gaussian, Inc.),
 the Gaussian 90(TM) system (copyright 1990, Gaussian, Inc.),
 the Gaussian 88(TM) system (copyright 1988, Gaussian, Inc.),
 the Gaussian 86(TM) system (copyright 1986, Carnegie Mellon
 University), and the Gaussian 82(TM) system (copyright 1983,
 Carnegie Mellon University). Gaussian is a federally registered
 trademark of Gaussian, Inc.
  
 This software contains proprietary and confidential information,
 including trade secrets, belonging to Gaussian, Inc.
  
 This software is provided under written license and may be
 used, copied, transmitted, or stored only in accord with that
 written license.
  
 The following legend is applicable only to US Government
 contracts under FAR:
  
                    RESTRICTED RIGHTS LEGEND
  
 Use, reproduction and disclosure by the US Government is
 subject to restrictions as set forth in subparagraphs (a)
 and (c) of the Commercial Computer Software - Restricted
 Rights clause in FAR 52.227-19.
  
 Gaussian, Inc.
 340 Quinnipiac St., Bldg. 40, Wallingford CT 06492
  
  
 ---------------------------------------------------------------
 Warning -- This program may not be used in any manner that
 competes with the business of Gaussian, Inc. or will provide
 assistance to any competitor of Gaussian, Inc.  The licensee
 of this program is prohibited from giving any competitor of
 Gaussian, Inc. access to this program.  By using this program,
 the user acknowledges that Gaussian, Inc. is engaged in the
 business of creating and licensing software in the field of
 computational chemistry and represents and warrants to the
 licensee that it is not a competitor of Gaussian, Inc. and that
 it will not use this program in any manner prohibited above.
 ---------------------------------------------------------------
  

 Cite this work as:
 Gaussian 09, Revision A.02,
 M. J. Frisch, G. W. Trucks, H. B. Schlegel, G. E. Scuseria, 
 M. A. Robb, J. R. Cheeseman, G. Scalmani, V. Barone, B. Mennucci, 
 G. A. Petersson, H. Nakatsuji, M. Caricato, X. Li, H. P. Hratchian, 
 A. F. Izmaylov, J. Bloino, G. Zheng, J. L. Sonnenberg, M. Hada, 
 M. Ehara, K. Toyota, R. Fukuda, J. Hasegawa, M. Ishida, T. Nakajima, 
 Y. Honda, O. Kitao, H. Nakai, T. Vreven, J. A. Montgomery, Jr., 
 J. E. Peralta, F. Ogliaro, M. Bearpark, J. J. Heyd, E. Brothers, 
 K. N. Kudin, V. N. Staroverov, R. Kobayashi, J. Normand, 
 K. Raghavachari, A. Rendell, J. C. Burant, S. S. Iyengar, J. Tomasi, 
 M. Cossi, N. Rega, J. M. Millam, M. Klene, J. E. Knox, J. B. Cross, 
 V. Bakken, C. Adamo, J. Jaramillo, R. Gomperts, R. E. Stratmann, 
 O. Yazyev, A. J. Austin, R. Cammi, C. Pomelli, J. W. Ochterski, 
 R. L. Martin, K. Morokuma, V. G. Zakrzewski, G. A. Voth, 
 P. Salvador, J. J. Dannenberg, S. Dapprich, A. D. Daniels, 
 O. Farkas, J. B. Foresman, J. V. Ortiz, J. Cioslowski, 
 and D. J. Fox, Gaussian, Inc., Wallingford CT, 2009.
 
 ******************************************
 Gaussian 09:  AM64L-G09RevA.02 11-Jun-2009
                14-Mar-2016 
 ******************************************
 %chk=31N_SCF.chk
 %mem=5000MB
 %nproc=8
 Will use up to    8 processors via shared memory.
 -------------------------------------------
 #P HF/6-31G* SCF=Tight Pop=(MK) IOP(6/33=2)
 -------------------------------------------
 1/38=1/1;
 2/12=2,17=6,18=5,40=1/2;
 3/5=1,6=6,7=1,11=9,16=1,25=1,30=1/1,2,3;
 4//1;
 5/5=2,32=2,38=5/2;
 6/7=2,8=2,9=2,10=2,15=8,20=1,28=1,33=2/1,2;
 99/5=1,9=1/99;
 Leave Link    1 at Mon Mar 14 11:39:06 2016, MaxMem=  655360000 cpu:       0.2
 (Enter /software/g09/g09/l101.exe)
 ---
 31N
 ---
 Symbolic Z-matrix:
 Charge =  1 Multiplicity = 1
 C(PDBName=C1,ResName=31N,ResNum=1)  42.51     32.428    28.66 
 C(PDBName=C2,ResName=31N,ResNum=1)  41.48     31.508    28.54 
 C(PDBName=C3,ResName=31N,ResNum=1)  41.257    31.64     30.931 
 C(PDBName=C4,ResName=31N,ResNum=1)  39.783    30.098    29.632 
 C(PDBName=C5,ResName=31N,ResNum=1)  38.347    30.531    29.686 
 C(PDBName=C6,ResName=31N,ResNum=1)  37.422    29.324    29.44 
 C(PDBName=C7,ResName=31N,ResNum=1)  37.701    28.224    30.479 
 C(PDBName=C8,ResName=31N,ResNum=1)  36.779    27.046    30.252 
 C(PDBName=C9,ResName=31N,ResNum=1)  36.742    27.613    27.836 
 C(PDBName=C10,ResName=31N,ResNum=1)  35.052    28.635    29.327 
 N(PDBName=N1,ResName=31N,ResNum=1)  34.933    26.203    28.895 
 C(PDBName=C11,ResName=31N,ResNum=1)  33.928    26.014    29.993 
 C(PDBName=C12,ResName=31N,ResNum=1)  32.833    25.047    29.714 
 C(PDBName=C13,ResName=31N,ResNum=1)  42.772    32.294    26.277 
 F(PDBName=F1,ResName=31N,ResNum=1)  40.656    31.302    32.096 
 N(PDBName=N2,ResName=31N,ResNum=1)  41.089    31.       27.354 
 O(PDBName=O1,ResName=31N,ResNum=1)  41.373    30.932    24.978 
 C(PDBName=C14,ResName=31N,ResNum=1)  43.153    32.798    27.5 
 C(PDBName=C15,ResName=31N,ResNum=1)  41.724    31.408    26.247 
 N(PDBName=N3,ResName=31N,ResNum=1)  42.928    32.929    29.83 
 C(PDBName=C16,ResName=31N,ResNum=1)  42.295    32.536    30.938 
 C(PDBName=C17,ResName=31N,ResNum=1)  40.849    31.129    29.712 
 C(PDBName=C18,ResName=31N,ResNum=1)  35.868    27.367    29.071 
 O(PDBName=O2,ResName=31N,ResNum=1)  37.565    28.783    28.08 
 C(PDBName=C19,ResName=31N,ResNum=1)  35.983    29.793    29.627 
 N(PDBName=N4,ResName=31N,ResNum=1)  32.038    25.305    28.664 
 C(PDBName=C20,ResName=31N,ResNum=1)  31.057    24.422    28.421 
 C(PDBName=C21,ResName=31N,ResNum=1)  30.831    23.307    29.207 
 C(PDBName=C22,ResName=31N,ResNum=1)  31.648    23.069    30.291 
 C(PDBName=C23,ResName=31N,ResNum=1)  32.67     23.959    30.554 
 O(PDBName=O3,ResName=31N,ResNum=1)  38.192    31.021    31.017 
 N(PDBName=N5,ResName=31N,ResNum=1)  30.192    24.678    27.354 
 C(PDBName=C24,ResName=31N,ResNum=1)  28.987    24.032    27.314 
 C(PDBName=C25,ResName=31N,ResNum=1)  28.645    23.001    28.335 
 O(PDBName=O4,ResName=31N,ResNum=1)  29.802    22.433    28.926 
 O(PDBName=O5,ResName=31N,ResNum=1)  28.198    24.285    26.423 
 C(PDBName=C26,ResName=31N,ResNum=1)  40.287    30.       25.046 
 H(PDBName=H1,ResName=31N,ResNum=1)  39.92     29.498    30.508 
 H(PDBName=H2,ResName=31N,ResNum=1)  39.901    29.662    28.662 
 H(PDBName=H3,ResName=31N,ResNum=1)  38.098    31.263    28.946 
 H(PDBName=H4,ResName=31N,ResNum=1)  37.445    28.633    31.435 
 H(PDBName=H5,ResName=31N,ResNum=1)  38.695    27.874    30.295 
 H(PDBName=H6,ResName=31N,ResNum=1)  36.154    26.967    31.116 
 H(PDBName=H7,ResName=31N,ResNum=1)  37.393    26.22     29.958 
 H(PDBName=H8,ResName=31N,ResNum=1)  37.404    26.777    27.751 
 H(PDBName=H9,ResName=31N,ResNum=1)  36.082    27.858    27.03 
 H(PDBName=H10,ResName=31N,ResNum=1)  34.483    28.46     30.216 
 H(PDBName=H11,ResName=31N,ResNum=1)  34.553    28.87     28.41 
 H(PDBName=H12,ResName=31N,ResNum=1)  35.493    25.375    28.857 
 H(PDBName=H13,ResName=31N,ResNum=1)  34.477    25.593    30.809 
 H(PDBName=H14,ResName=31N,ResNum=1)  33.447    26.963    30.104 
 H(PDBName=H15,ResName=31N,ResNum=1)  43.277    32.584    25.379 
 H(PDBName=H16,ResName=31N,ResNum=1)  43.968    33.491    27.55 
 H(PDBName=H17,ResName=31N,ResNum=1)  42.613    32.94     31.877 
 H(PDBName=H18,ResName=31N,ResNum=1)  35.864    30.03     30.663 
 H(PDBName=H19,ResName=31N,ResNum=1)  35.8      30.542    28.883 
 H(PDBName=H20,ResName=31N,ResNum=1)  31.493    22.214    30.915 
 H(PDBName=H21,ResName=31N,ResNum=1)  33.321    23.812    31.39 
 H(PDBName=H22,ResName=31N,ResNum=1)  39.035    30.978    31.475 
 H(PDBName=H23,ResName=31N,ResNum=1)  28.13     23.516    29.12 
 H(PDBName=H24,ResName=31N,ResNum=1)  28.157    22.207    27.808 
 H(PDBName=H25,ResName=31N,ResNum=1)  39.985    29.876    26.066 
 H(PDBName=H26,ResName=31N,ResNum=1)  40.601    29.056    24.651 
 H(PDBName=H27,ResName=31N,ResNum=1)  39.462    30.37     24.473 
 H(PDBName=H28,ResName=31N,ResNum=1)  30.449    25.322    26.634 
 H(PDBName=H29,ResName=31N,ResNum=1)  34.423    26.359    28.049 
 
 LOOKING FOR ATMS :                       -1                       6
          140303703738576                 7967360  0.0000000000000000E+000
 LOOKING FOR ATMS :                       -1                       6
                        1                      12  0.0000000000000000E+000
 LOOKING FOR ATMS :                       -1                       6
                        1                      12  0.0000000000000000E+000
 LOOKING FOR ATMS :                       -1                       6
                        1                      12  0.0000000000000000E+000
 LOOKING FOR ATMS :                       -1                       6
                        1                      12  0.0000000000000000E+000
 LOOKING FOR ATMS :                       -1                       6
                        1                      12  0.0000000000000000E+000
 LOOKING FOR ATMS :                       -1                       6
                        1                      12  0.0000000000000000E+000
 LOOKING FOR ATMS :                       -1                       6
                        1                      12  0.0000000000000000E+000
 LOOKING FOR ATMS :                       -1                       6
                        1                      12  0.0000000000000000E+000
 LOOKING FOR ATMS :                       -1                       6
                        1                      12  0.0000000000000000E+000
 LOOKING FOR ATMS :                       -1                       7
                        1                      12  0.0000000000000000E+000
 LOOKING FOR ATMS :                       -1                       6
                        1                      14  0.0000000000000000E+000
 LOOKING FOR ATMS :                       -1                       6
                        1                      12  0.0000000000000000E+000
 LOOKING FOR ATMS :                       -1                       6
                        1                      12  0.0000000000000000E+000
 LOOKING FOR ATMS :                       -1                       9
                        1                      12  0.0000000000000000E+000
 LOOKING FOR ATMS :                       -1                       7
                        1                      19  0.0000000000000000E+000
 LOOKING FOR ATMS :                       -1                       8
                        1                      14  0.0000000000000000E+000
 LOOKING FOR ATMS :                       -1                       6
                        1                      16  0.0000000000000000E+000
 LOOKING FOR ATMS :                       -1                       6
                        1                      12  0.0000000000000000E+000
 LOOKING FOR ATMS :                       -1                       7
                        1                      12  0.0000000000000000E+000
 LOOKING FOR ATMS :                       -1                       6
                        1                      14  0.0000000000000000E+000
 LOOKING FOR ATMS :                       -1                       6
                        1                      12  0.0000000000000000E+000
 LOOKING FOR ATMS :                       -1                       6
                        1                      12  0.0000000000000000E+000
 LOOKING FOR ATMS :                       -1                       8
                        1                      12  0.0000000000000000E+000
 LOOKING FOR ATMS :                       -1                       6
                        1                      16  0.0000000000000000E+000
 LOOKING FOR ATMS :                       -1                       7
                        1                      12  0.0000000000000000E+000
 LOOKING FOR ATMS :                       -1                       6
                        1                      14  0.0000000000000000E+000
 LOOKING FOR ATMS :                       -1                       6
                        1                      12  0.0000000000000000E+000
 LOOKING FOR ATMS :                       -1                       6
                        1                      12  0.0000000000000000E+000
 LOOKING FOR ATMS :                       -1                       6
                        1                      12  0.0000000000000000E+000
 LOOKING FOR ATMS :                       -1                       8
                        1                      12  0.0000000000000000E+000
 LOOKING FOR ATMS :                       -1                       7
                        1                      16  0.0000000000000000E+000
 LOOKING FOR ATMS :                       -1                       6
                        1                      14  0.0000000000000000E+000
 LOOKING FOR ATMS :                       -1                       6
                        1                      12  0.0000000000000000E+000
 LOOKING FOR ATMS :                       -1                       8
                        1                      12  0.0000000000000000E+000
 LOOKING FOR ATMS :                       -1                       8
                        1                      16  0.0000000000000000E+000
 LOOKING FOR ATMS :                       -1                       6
                        1                      16  0.0000000000000000E+000
 LOOKING FOR ATMS :                       -1                       1
                        1                      12  0.0000000000000000E+000
 LOOKING FOR ATMS :                       -1                       1
                        1                       1  0.0000000000000000E+000
 LOOKING FOR ATMS :                       -1                       1
                        1                       1  0.0000000000000000E+000
 LOOKING FOR ATMS :                       -1                       1
                        1                       1  0.0000000000000000E+000
 LOOKING FOR ATMS :                       -1                       1
                        1                       1  0.0000000000000000E+000
 LOOKING FOR ATMS :                       -1                       1
                        1                       1  0.0000000000000000E+000
 LOOKING FOR ATMS :                       -1                       1
                        1                       1  0.0000000000000000E+000
 LOOKING FOR ATMS :                       -1                       1
                        1                       1  0.0000000000000000E+000
 LOOKING FOR ATMS :                       -1                       1
                        1                       1  0.0000000000000000E+000
 LOOKING FOR ATMS :                       -1                       1
                        1                       1  0.0000000000000000E+000
 LOOKING FOR ATMS :                       -1                       1
                        1                       1  0.0000000000000000E+000
 LOOKING FOR ATMS :                       -1                       1
                        1                       1  0.0000000000000000E+000
 LOOKING FOR ATMS :                       -1                       1
                        1                       1  0.0000000000000000E+000
 LOOKING FOR ATMS :                       -1                       1
                        1                       1  0.0000000000000000E+000
 LOOKING FOR ATMS :                       -1                       1
                        1                       1  0.0000000000000000E+000
 LOOKING FOR ATMS :                       -1                       1
                        1                       1  0.0000000000000000E+000
 LOOKING FOR ATMS :                       -1                       1
                        1                       1  0.0000000000000000E+000
 LOOKING FOR ATMS :                       -1                       1
                        1                       1  0.0000000000000000E+000
 LOOKING FOR ATMS :                       -1                       1
                        1                       1  0.0000000000000000E+000
 LOOKING FOR ATMS :                       -1                       1
                        1                       1  0.0000000000000000E+000
 LOOKING FOR ATMS :                       -1                       1
                        1                       1  0.0000000000000000E+000
 LOOKING FOR ATMS :                       -1                       1
                        1                       1  0.0000000000000000E+000
 LOOKING FOR ATMS :                       -1                       1
                        1                       1  0.0000000000000000E+000
 LOOKING FOR ATMS :                       -1                       1
                        1                       1  0.0000000000000000E+000
 LOOKING FOR ATMS :                       -1                       1
                        1                       1  0.0000000000000000E+000
 LOOKING FOR ATMS :                       -1                       1
                        1                       1  0.0000000000000000E+000
 LOOKING FOR ATMS :                       -1                       1
                        1                       1  0.0000000000000000E+000
 LOOKING FOR ATMS :                       -1                       1
                        1                       1  0.0000000000000000E+000
 LOOKING FOR ATMS :                       -1                       1
                        1                       1  0.0000000000000000E+000
 NAtoms=     66 NQM=     66 NQMF=      0 NMic=      0 NMicF=      0 NTot=     66.
 LOOKING FOR ATMS :                       12                       6
          140724263831440                       7   12.00000000000000     
 LOOKING FOR ATMS :                       12                       6
                        1                      12   12.00000000000000     
 LOOKING FOR ATMS :                       12                       6
                        1                      12   12.00000000000000     
 LOOKING FOR ATMS :                       12                       6
                        1                      12   12.00000000000000     
 LOOKING FOR ATMS :                       12                       6
                        1                      12   12.00000000000000     
 LOOKING FOR ATMS :                       12                       6
                        1                      12   12.00000000000000     
 LOOKING FOR ATMS :                       12                       6
                        1                      12   12.00000000000000     
 LOOKING FOR ATMS :                       12                       6
                        1                      12   12.00000000000000     
 LOOKING FOR ATMS :                       12                       6
                        1                      12   12.00000000000000     
 LOOKING FOR ATMS :                       12                       6
                        1                      12   12.00000000000000     
 LOOKING FOR ATMS :                       14                       7
                        1                      12   14.00307400800000     
 LOOKING FOR ATMS :                       12                       6
                        1                      14   12.00000000000000     
 LOOKING FOR ATMS :                       12                       6
                        1                      12   12.00000000000000     
 LOOKING FOR ATMS :                       12                       6
                        1                      12   12.00000000000000     
 LOOKING FOR ATMS :                       19                       9
                        1                      12   18.99840325000000     
 LOOKING FOR ATMS :                       14                       7
                        1                      19   14.00307400800000     
 LOOKING FOR ATMS :                       16                       8
                        1                      14   15.99491464000000     
 LOOKING FOR ATMS :                       12                       6
                        1                      16   12.00000000000000     
 LOOKING FOR ATMS :                       12                       6
                        1                      12   12.00000000000000     
 LOOKING FOR ATMS :                       14                       7
                        1                      12   14.00307400800000     
 LOOKING FOR ATMS :                       12                       6
                        1                      14   12.00000000000000     
 LOOKING FOR ATMS :                       12                       6
                        1                      12   12.00000000000000     
 LOOKING FOR ATMS :                       12                       6
                        1                      12   12.00000000000000     
 LOOKING FOR ATMS :                       16                       8
                        1                      12   15.99491464000000     
 LOOKING FOR ATMS :                       12                       6
                        1                      16   12.00000000000000     
 LOOKING FOR ATMS :                       14                       7
                        1                      12   14.00307400800000     
 LOOKING FOR ATMS :                       12                       6
                        1                      14   12.00000000000000     
 LOOKING FOR ATMS :                       12                       6
                        1                      12   12.00000000000000     
 LOOKING FOR ATMS :                       12                       6
                        1                      12   12.00000000000000     
 LOOKING FOR ATMS :                       12                       6
                        1                      12   12.00000000000000     
 LOOKING FOR ATMS :                       16                       8
                        1                      12   15.99491464000000     
 LOOKING FOR ATMS :                       14                       7
                        1                      16   14.00307400800000     
 LOOKING FOR ATMS :                       12                       6
                        1                      14   12.00000000000000     
 LOOKING FOR ATMS :                       12                       6
                        1                      12   12.00000000000000     
 LOOKING FOR ATMS :                       16                       8
                        1                      12   15.99491464000000     
 LOOKING FOR ATMS :                       16                       8
                        1                      16   15.99491464000000     
 LOOKING FOR ATMS :                       12                       6
                        1                      16   12.00000000000000     
 LOOKING FOR ATMS :                        1                       1
                        1                      12   1.007825037000000     
 LOOKING FOR ATMS :                        1                       1
                        1                       1   1.007825037000000     
 LOOKING FOR ATMS :                        1                       1
                        1                       1   1.007825037000000     
 LOOKING FOR ATMS :                        1                       1
                        1                       1   1.007825037000000     
 LOOKING FOR ATMS :                        1                       1
                        1                       1   1.007825037000000     
 LOOKING FOR ATMS :                        1                       1
                        1                       1   1.007825037000000     
 LOOKING FOR ATMS :                        1                       1
                        1                       1   1.007825037000000     
 LOOKING FOR ATMS :                        1                       1
                        1                       1   1.007825037000000     
 LOOKING FOR ATMS :                        1                       1
                        1                       1   1.007825037000000     
 LOOKING FOR ATMS :                        1                       1
                        1                       1   1.007825037000000     
 LOOKING FOR ATMS :                        1                       1
                        1                       1   1.007825037000000     
 LOOKING FOR ATMS :                        1                       1
                        1                       1   1.007825037000000     
 LOOKING FOR ATMS :                        1                       1
                        1                       1   1.007825037000000     
 LOOKING FOR ATMS :                        1                       1
                        1                       1   1.007825037000000     
 LOOKING FOR ATMS :                        1                       1
                        1                       1   1.007825037000000     
 LOOKING FOR ATMS :                        1                       1
                        1                       1   1.007825037000000     
 LOOKING FOR ATMS :                        1                       1
                        1                       1   1.007825037000000     
 LOOKING FOR ATMS :                        1                       1
                        1                       1   1.007825037000000     
 LOOKING FOR ATMS :                        1                       1
                        1                       1   1.007825037000000     
 LOOKING FOR ATMS :                        1                       1
                        1                       1   1.007825037000000     
 LOOKING FOR ATMS :                        1                       1
                        1                       1   1.007825037000000     
 LOOKING FOR ATMS :                        1                       1
                        1                       1   1.007825037000000     
 LOOKING FOR ATMS :                        1                       1
                        1                       1   1.007825037000000     
 LOOKING FOR ATMS :                        1                       1
                        1                       1   1.007825037000000     
 LOOKING FOR ATMS :                        1                       1
                        1                       1   1.007825037000000     
 LOOKING FOR ATMS :                        1                       1
                        1                       1   1.007825037000000     
 LOOKING FOR ATMS :                        1                       1
                        1                       1   1.007825037000000     
 LOOKING FOR ATMS :                        1                       1
                        1                       1   1.007825037000000     
 LOOKING FOR ATMS :                        1                       1
                        1                       1   1.007825037000000     
                    Isotopes and Nuclear Properties:
 (Nuclear quadrupole moments (NQMom) in fm**2, nuclear magnetic moments (NMagM)
  in nuclear magnetons)

  Atom         1           2           3           4           5           6           7           8           9          10
 IAtWgt=          12          12          12          12          12          12          12          12          12          12
 AtmWgt=  12.0000000  12.0000000  12.0000000  12.0000000  12.0000000  12.0000000  12.0000000  12.0000000  12.0000000  12.0000000
 NucSpn=           0           0           0           0           0           0           0           0           0           0
 AtZEff=   0.0000000   0.0000000   0.0000000   0.0000000   0.0000000   0.0000000   0.0000000   0.0000000   0.0000000   0.0000000
 NQMom=    0.0000000   0.0000000   0.0000000   0.0000000   0.0000000   0.0000000   0.0000000   0.0000000   0.0000000   0.0000000
 NMagM=    0.0000000   0.0000000   0.0000000   0.0000000   0.0000000   0.0000000   0.0000000   0.0000000   0.0000000   0.0000000

  Atom        11          12          13          14          15          16          17          18          19          20
 IAtWgt=          14          12          12          12          19          14          16          12          12          14
 AtmWgt=  14.0030740  12.0000000  12.0000000  12.0000000  18.9984033  14.0030740  15.9949146  12.0000000  12.0000000  14.0030740
 NucSpn=           2           0           0           0           1           2           0           0           0           2
 AtZEff=   0.0000000   0.0000000   0.0000000   0.0000000   0.0000000   0.0000000   0.0000000   0.0000000   0.0000000   0.0000000
 NQMom=    2.0440000   0.0000000   0.0000000   0.0000000   0.0000000   2.0440000   0.0000000   0.0000000   0.0000000   2.0440000
 NMagM=    0.4037610   0.0000000   0.0000000   0.0000000   2.6288670   0.4037610   0.0000000   0.0000000   0.0000000   0.4037610

  Atom        21          22          23          24          25          26          27          28          29          30
 IAtWgt=          12          12          12          16          12          14          12          12          12          12
 AtmWgt=  12.0000000  12.0000000  12.0000000  15.9949146  12.0000000  14.0030740  12.0000000  12.0000000  12.0000000  12.0000000
 NucSpn=           0           0           0           0           0           2           0           0           0           0
 AtZEff=   0.0000000   0.0000000   0.0000000   0.0000000   0.0000000   0.0000000   0.0000000   0.0000000   0.0000000   0.0000000
 NQMom=    0.0000000   0.0000000   0.0000000   0.0000000   0.0000000   2.0440000   0.0000000   0.0000000   0.0000000   0.0000000
 NMagM=    0.0000000   0.0000000   0.0000000   0.0000000   0.0000000   0.4037610   0.0000000   0.0000000   0.0000000   0.0000000

  Atom        31          32          33          34          35          36          37          38          39          40
 IAtWgt=          16          14          12          12          16          16          12           1           1           1
 AtmWgt=  15.9949146  14.0030740  12.0000000  12.0000000  15.9949146  15.9949146  12.0000000   1.0078250   1.0078250   1.0078250
 NucSpn=           0           2           0           0           0           0           0           1           1           1
 AtZEff=   0.0000000   0.0000000   0.0000000   0.0000000   0.0000000   0.0000000   0.0000000   0.0000000   0.0000000   0.0000000
 NQMom=    0.0000000   2.0440000   0.0000000   0.0000000   0.0000000   0.0000000   0.0000000   0.0000000   0.0000000   0.0000000
 NMagM=    0.0000000   0.4037610   0.0000000   0.0000000   0.0000000   0.0000000   0.0000000   2.7928460   2.7928460   2.7928460

  Atom        41          42          43          44          45          46          47          48          49          50
 IAtWgt=           1           1           1           1           1           1           1           1           1           1
 AtmWgt=   1.0078250   1.0078250   1.0078250   1.0078250   1.0078250   1.0078250   1.0078250   1.0078250   1.0078250   1.0078250
 NucSpn=           1           1           1           1           1           1           1           1           1           1
 AtZEff=   0.0000000   0.0000000   0.0000000   0.0000000   0.0000000   0.0000000   0.0000000   0.0000000   0.0000000   0.0000000
 NQMom=    0.0000000   0.0000000   0.0000000   0.0000000   0.0000000   0.0000000   0.0000000   0.0000000   0.0000000   0.0000000
 NMagM=    2.7928460   2.7928460   2.7928460   2.7928460   2.7928460   2.7928460   2.7928460   2.7928460   2.7928460   2.7928460

  Atom        51          52          53          54          55          56          57          58          59          60
 IAtWgt=           1           1           1           1           1           1           1           1           1           1
 AtmWgt=   1.0078250   1.0078250   1.0078250   1.0078250   1.0078250   1.0078250   1.0078250   1.0078250   1.0078250   1.0078250
 NucSpn=           1           1           1           1           1           1           1           1           1           1
 AtZEff=   0.0000000   0.0000000   0.0000000   0.0000000   0.0000000   0.0000000   0.0000000   0.0000000   0.0000000   0.0000000
 NQMom=    0.0000000   0.0000000   0.0000000   0.0000000   0.0000000   0.0000000   0.0000000   0.0000000   0.0000000   0.0000000
 NMagM=    2.7928460   2.7928460   2.7928460   2.7928460   2.7928460   2.7928460   2.7928460   2.7928460   2.7928460   2.7928460

  Atom        61          62          63          64          65          66
 IAtWgt=           1           1           1           1           1           1
 AtmWgt=   1.0078250   1.0078250   1.0078250   1.0078250   1.0078250   1.0078250
 NucSpn=           1           1           1           1           1           1
 AtZEff=   0.0000000   0.0000000   0.0000000   0.0000000   0.0000000   0.0000000
 NQMom=    0.0000000   0.0000000   0.0000000   0.0000000   0.0000000   0.0000000
 NMagM=    2.7928460   2.7928460   2.7928460   2.7928460   2.7928460   2.7928460
 Leave Link  101 at Mon Mar 14 11:39:06 2016, MaxMem=  655360000 cpu:       0.4
 (Enter /software/g09/g09/l202.exe)
 Stoichiometry    C26H29FN5O5(1+)
 Framework group  C1[X(C26H29FN5O5)]
 Deg. of freedom   192
 Full point group                 C1      NOp   1
 Largest Abelian subgroup         C1      NOp   1
 Largest concise Abelian subgroup C1      NOp   1
                         Standard orientation:                         
 ---------------------------------------------------------------------
 Center     Atomic      Atomic             Coordinates (Angstroms)
 Number     Number       Type             X           Y           Z
 ---------------------------------------------------------------------
      1          6           0        7.197179    0.179161    0.059734
      2          6           0        5.825574    0.298632   -0.101905
      3          6           0        5.720781   -2.093376    0.124700
      4          6           0        3.627568   -0.794520   -0.286727
      5          6           0        2.700293   -0.853987    0.891884
      6          6           0        1.249819   -0.607413    0.435466
      7          6           0        0.847755   -1.642540   -0.629531
      8          6           0       -0.583599   -1.415036   -1.064000
      9          6           0       -0.290496    0.999270   -0.568893
     10          6           0       -1.086441   -0.499566    1.232114
     11          7           0       -2.580242   -0.061216   -0.689296
     12          6           0       -3.510735   -1.161676   -0.271541
     13          6           0       -4.962679   -0.883270   -0.433726
     14          6           0        7.332766    2.563290   -0.190926
     15          9           0        5.035632   -3.259223    0.188284
     16          7           0        5.212796    1.484860   -0.288739
     17          8           0        5.404288    3.861873   -0.498011
     18          6           0        7.935092    1.340044   -0.001775
     19          6           0        5.966015    2.592615   -0.314750
     20          7           0        7.828035   -0.990968    0.225401
     21          6           0        7.085064   -2.099758    0.262543
     22          6           0        5.092332   -0.874191   -0.054701
     23          6           0       -1.146322   -0.237642   -0.273550
     24          8           0        1.055215    0.754494   -0.084216
     25          6           0        0.340865   -0.799987    1.644751
     26          7           0       -5.466466    0.163644    0.238033
     27          6           0       -6.776814    0.406158    0.079052
     28          6           0       -7.601222   -0.377433   -0.707353
     29          6           0       -7.067912   -1.458336   -1.375497
     30          6           0       -5.719956   -1.720747   -1.234399
     31          8           0        2.855771   -2.186789    1.376809
     32          7           0       -7.339082    1.469869    0.789421
     33          6           0       -8.696639    1.508064    0.952278
     34          6           0       -9.567617    0.488899    0.300307
     35          8           0       -8.945741   -0.097086   -0.831261
     36          8           0       -9.198247    2.396011    1.615867
     37          6           0        3.980100    3.793213   -0.638079
     38          1           0        3.396093   -1.668450   -0.860147
     39          1           0        3.473096    0.177026   -0.707628
     40          1           0        2.915942   -0.116754    1.637141
     41          1           0        0.873716   -2.600422   -0.151471
     42          1           0        1.460631   -1.454618   -1.485954
     43          1           0       -1.139989   -2.280671   -0.773365
     44          1           0       -0.555208   -1.116933   -2.091636
     45          1           0       -0.228362    1.088545   -1.633099
     46          1           0       -0.690992    1.802623    0.013763
     47          1           0       -1.652059   -1.389770    1.411897
     48          1           0       -1.360937    0.415293    1.714607
     49          1           0       -2.596998   -0.019266   -1.688589
     50          1           0       -3.302148   -1.974874   -0.934639
     51          1           0       -3.359772   -1.276724    0.781196
     52          1           0        7.911981    3.461986   -0.239770
     53          1           0        9.000284    1.290558    0.097675
     54          1           0        7.578159   -3.038919    0.407099
     55          1           0        0.380347   -1.836987    1.903014
     56          1           0        0.620313   -0.058604    2.366059
     57          1           0       -7.685078   -2.080434   -1.989115
     58          1           0       -5.270551   -2.554397   -1.731760
     59          1           0        3.521770   -2.642158    0.855898
     60          1           0       -9.693039   -0.299048    1.014509
     61          1           0      -10.423428    1.016632   -0.067652
     62          1           0        3.662501    2.772664   -0.570313
     63          1           0        3.695017    4.191748   -1.589737
     64          1           0        3.516444    4.362732    0.140718
     65          1           0       -6.759591    2.188851    1.172094
     66          1           0       -2.909031    0.782829   -0.265459
 ---------------------------------------------------------------------
 Rotational constants (GHZ):      0.2779670      0.0305094      0.0284462
 Leave Link  202 at Mon Mar 14 11:39:06 2016, MaxMem=  655360000 cpu:       0.2
 (Enter /software/g09/g09/l301.exe)
 Standard basis: 6-31G(d) (6D, 7F)
 Ernie: Thresh=  0.10000D-02 Tol=  0.10000D-05 Strict=F.
 There are   613 symmetry adapted basis functions of A   symmetry.
 Integral buffers will be    131072 words long.
 Raffenetti 1 integral format.
 Two-electron integral symmetry is turned on.
   613 basis functions,  1152 primitive gaussians,   613 cartesian basis functions
   134 alpha electrons      134 beta electrons
       nuclear repulsion energy      3918.0714922080 Hartrees.
 IExCor=    0 DFT=F Ex=HF Corr=None ExCW=0 ScaHFX=  1.000000
 ScaDFX=  1.000000  1.000000  1.000000  1.000000 ScalE2=  1.000000  1.000000
 IRadAn=      0 IRanWt=     -1 IRanGd=            0 ICorTp=0
 NAtoms=   66 NActive=   66 NUniq=   66 SFac= 7.50D-01 NAtFMM=   80 NAOKFM=F Big=T
 Leave Link  301 at Mon Mar 14 11:39:07 2016, MaxMem=  655360000 cpu:       0.3
 (Enter /software/g09/g09/l302.exe)
 NPDir=0 NMtPBC=     1 NCelOv=     1 NCel=       1 NClECP=     1 NCelD=      1
         NCelK=      1 NCelE2=     1 NClLst=     1 CellRange=     0.0.
 One-electron integrals computed using PRISM.
 NBasis=   613 RedAO= T  NBF=   613
 NBsUse=   613 1.00D-06 NBFU=   613
 Leave Link  302 at Mon Mar 14 11:39:11 2016, MaxMem=  655360000 cpu:      16.5
 (Enter /software/g09/g09/l303.exe)
 DipDrv:  MaxL=1.
 Leave Link  303 at Mon Mar 14 11:39:12 2016, MaxMem=  655360000 cpu:       3.0
 (Enter /software/g09/g09/l401.exe)
 Harris functional with IExCor=  205 diagonalized for initial guess.
 ExpMin= 1.61D-01 ExpMax= 7.00D+03 ExpMxC= 1.05D+03 IAcc=1 IRadAn=         1 AccDes= 0.00D+00
 HarFok:  IExCor=  205 AccDes= 0.00D+00 IRadAn=         1 IDoV= 1
 ScaDFX=  1.000000  1.000000  1.000000  1.000000
 FoFCou: FMM=F IPFlag=           0 FMFlag=      100000 FMFlg1=           1
         NFxFlg=           0 DoJE=T BraDBF=F KetDBF=T FulRan=T
         Omega=  0.000000  0.000000  1.000000  0.000000  0.000000 ICntrl=     500 IOpCl=  0
         NMat0=    1 NMatS0=    1 NMatT0=    0 NMatD0=    1 NMtDS0=    0 NMtDT0=    0
         I1Cent=           4 NGrid=           0.
 Petite list used in FoFCou.
 Harris En= -1749.12614844903    
 Initial guess orbital symmetries:
       Occupied  (A) (A) (A) (A) (A) (A) (A) (A) (A) (A) (A) (A)
                 (A) (A) (A) (A) (A) (A) (A) (A) (A) (A) (A) (A)
                 (A) (A) (A) (A) (A) (A) (A) (A) (A) (A) (A) (A)
                 (A) (A) (A) (A) (A) (A) (A) (A) (A) (A) (A) (A)
                 (A) (A) (A) (A) (A) (A) (A) (A) (A) (A) (A) (A)
                 (A) (A) (A) (A) (A) (A) (A) (A) (A) (A) (A) (A)
                 (A) (A) (A) (A) (A) (A) (A) (A) (A) (A) (A) (A)
                 (A) (A) (A) (A) (A) (A) (A) (A) (A) (A) (A) (A)
                 (A) (A) (A) (A) (A) (A) (A) (A) (A) (A) (A) (A)
                 (A) (A) (A) (A) (A) (A) (A) (A) (A) (A) (A) (A)
                 (A) (A) (A) (A) (A) (A) (A) (A) (A) (A) (A) (A)
                 (A) (A)
       Virtual   (A) (A) (A) (A) (A) (A) (A) (A) (A) (A) (A) (A)
                 (A) (A) (A) (A) (A) (A) (A) (A) (A) (A) (A) (A)
                 (A) (A) (A) (A) (A) (A) (A) (A) (A) (A) (A) (A)
                 (A) (A) (A) (A) (A) (A) (A) (A) (A) (A) (A) (A)
                 (A) (A) (A) (A) (A) (A) (A) (A) (A) (A) (A) (A)
                 (A) (A) (A) (A) (A) (A) (A) (A) (A) (A) (A) (A)
                 (A) (A) (A) (A) (A) (A) (A) (A) (A) (A) (A) (A)
                 (A) (A) (A) (A) (A) (A) (A) (A) (A) (A) (A) (A)
                 (A) (A) (A) (A) (A) (A) (A) (A) (A) (A) (A) (A)
                 (A) (A) (A) (A) (A) (A) (A) (A) (A) (A) (A) (A)
                 (A) (A) (A) (A) (A) (A) (A) (A) (A) (A) (A) (A)
                 (A) (A) (A) (A) (A) (A) (A) (A) (A) (A) (A) (A)
                 (A) (A) (A) (A) (A) (A) (A) (A) (A) (A) (A) (A)
                 (A) (A) (A) (A) (A) (A) (A) (A) (A) (A) (A) (A)
                 (A) (A) (A) (A) (A) (A) (A) (A) (A) (A) (A) (A)
                 (A) (A) (A) (A) (A) (A) (A) (A) (A) (A) (A) (A)
                 (A) (A) (A) (A) (A) (A) (A) (A) (A) (A) (A) (A)
                 (A) (A) (A) (A) (A) (A) (A) (A) (A) (A) (A) (A)
                 (A) (A) (A) (A) (A) (A) (A) (A) (A) (A) (A) (A)
                 (A) (A) (A) (A) (A) (A) (A) (A) (A) (A) (A) (A)
                 (A) (A) (A) (A) (A) (A) (A) (A) (A) (A) (A) (A)
                 (A) (A) (A) (A) (A) (A) (A) (A) (A) (A) (A) (A)
                 (A) (A) (A) (A) (A) (A) (A) (A) (A) (A) (A) (A)
                 (A) (A) (A) (A) (A) (A) (A) (A) (A) (A) (A) (A)
                 (A) (A) (A) (A) (A) (A) (A) (A) (A) (A) (A) (A)
                 (A) (A) (A) (A) (A) (A) (A) (A) (A) (A) (A) (A)
                 (A) (A) (A) (A) (A) (A) (A) (A) (A) (A) (A) (A)
                 (A) (A) (A) (A) (A) (A) (A) (A) (A) (A) (A) (A)
                 (A) (A) (A) (A) (A) (A) (A) (A) (A) (A) (A) (A)
                 (A) (A) (A) (A) (A) (A) (A) (A) (A) (A) (A) (A)
                 (A) (A) (A) (A) (A) (A) (A) (A) (A) (A) (A) (A)
                 (A) (A) (A) (A) (A) (A) (A) (A) (A) (A) (A) (A)
                 (A) (A) (A) (A) (A) (A) (A) (A) (A) (A) (A) (A)
                 (A) (A) (A) (A) (A) (A) (A) (A) (A) (A) (A) (A)
                 (A) (A) (A) (A) (A) (A) (A) (A) (A) (A) (A) (A)
                 (A) (A) (A) (A) (A) (A) (A) (A) (A) (A) (A) (A)
                 (A) (A) (A) (A) (A) (A) (A) (A) (A) (A) (A) (A)
                 (A) (A) (A) (A) (A) (A) (A) (A) (A) (A) (A) (A)
                 (A) (A) (A) (A) (A) (A) (A) (A) (A) (A) (A) (A)
                 (A) (A) (A) (A) (A) (A) (A) (A) (A) (A) (A)
 The electronic state of the initial guess is 1-A.
 Leave Link  401 at Mon Mar 14 11:39:19 2016, MaxMem=  655360000 cpu:      34.3
 (Enter /software/g09/g09/l502.exe)
 Closed shell SCF:
 Requested convergence on RMS density matrix=1.00D-08 within 128 cycles.
 Requested convergence on MAX density matrix=1.00D-06.
 Requested convergence on             energy=1.00D-06.
 No special actions if energy rises.
 Using DIIS extrapolation, IDIIS=  1040.
 Integral symmetry usage will be decided dynamically.
 IEnd=     1154986 IEndB=     1154986 NGot=   655360000 MDV=   654598037
 LenX=   654598037 LenY=   654221655
 Fock matrices will be formed incrementally for  20 cycles.
 Integral accuracy reduced to 1.0D-05 until final iterations.

 Cycle   1  Pass 0  IDiag  1:
 FoFCou: FMM=T IPFlag=           0 FMFlag=      100000 FMFlg1=           1
         NFxFlg=           0 DoJE=F BraDBF=F KetDBF=F FulRan=T
         Omega=  0.000000  0.000000  1.000000  0.000000  0.000000 ICntrl=       0 IOpCl=  0
         NMat0=    1 NMatS0=    1 NMatT0=    0 NMatD0=    1 NMtDS0=    0 NMtDT0=    0
         I1Cent=           0 NGrid=           0.
 Symmetry not used in FoFCou.
 FMM levels:  10  Number of levels for PrismC:   9
 E= -1745.90211785688    
 DIIS: error= 5.57D-02 at cycle   1 NSaved=   1.
 NSaved= 1 IEnMin= 1 EnMin= -1745.90211785688     IErMin= 1 ErrMin= 5.57D-02
 ErrMax= 5.57D-02 EMaxC= 1.00D-01 BMatC= 2.25D+00 BMatP= 2.25D+00
 IDIUse=3 WtCom= 4.43D-01 WtEn= 5.57D-01
 Coeff-Com:  0.100D+01
 Coeff-En:   0.100D+01
 Coeff:      0.100D+01
 Gap=     0.475 Goal=   None    Shift=    0.000
 GapD=    0.475 DampG=2.000 DampE=0.500 DampFc=1.0000 IDamp=-1.
 RMSDP=3.06D-03 MaxDP=1.19D-01              OVMax= 1.43D-01

 Cycle   2  Pass 0  IDiag  1:
 RMSU=  2.10D-03    CP:  9.49D-01
 E= -1746.98199529401     Delta-E=       -1.079877437131 Rises=F Damp=F
 DIIS: error= 1.05D-02 at cycle   2 NSaved=   2.
 NSaved= 2 IEnMin= 2 EnMin= -1746.98199529401     IErMin= 2 ErrMin= 1.05D-02
 ErrMax= 1.05D-02 EMaxC= 1.00D-01 BMatC= 2.02D-01 BMatP= 2.25D+00
 IDIUse=3 WtCom= 8.95D-01 WtEn= 1.05D-01
 Coeff-Com:  0.131D+00 0.869D+00
 Coeff-En:   0.000D+00 0.100D+01
 Coeff:      0.117D+00 0.883D+00
 Gap=     0.437 Goal=   None    Shift=    0.000
 RMSDP=1.04D-03 MaxDP=6.11D-02 DE=-1.08D+00 OVMax= 5.82D-02

 Cycle   3  Pass 0  IDiag  1:
 RMSU=  6.79D-04    CP:  9.54D-01  8.68D-01
 E= -1747.11905879181     Delta-E=       -0.137063497801 Rises=F Damp=F
 DIIS: error= 6.19D-03 at cycle   3 NSaved=   3.
 NSaved= 3 IEnMin= 3 EnMin= -1747.11905879181     IErMin= 3 ErrMin= 6.19D-03
 ErrMax= 6.19D-03 EMaxC= 1.00D-01 BMatC= 3.55D-02 BMatP= 2.02D-01
 IDIUse=3 WtCom= 9.38D-01 WtEn= 6.19D-02
 Coeff-Com: -0.195D-01 0.265D+00 0.754D+00
 Coeff-En:   0.000D+00 0.000D+00 0.100D+01
 Coeff:     -0.183D-01 0.249D+00 0.770D+00
 Gap=     0.368 Goal=   None    Shift=    0.000
 RMSDP=3.26D-04 MaxDP=2.98D-02 DE=-1.37D-01 OVMax= 3.89D-02

 Cycle   4  Pass 0  IDiag  1:
 RMSU=  1.52D-04    CP:  9.52D-01  9.28D-01  8.27D-01
 E= -1747.14808996445     Delta-E=       -0.029031172631 Rises=F Damp=F
 DIIS: error= 1.89D-03 at cycle   4 NSaved=   4.
 NSaved= 4 IEnMin= 4 EnMin= -1747.14808996445     IErMin= 4 ErrMin= 1.89D-03
 ErrMax= 1.89D-03 EMaxC= 1.00D-01 BMatC= 2.44D-03 BMatP= 3.55D-02
 IDIUse=3 WtCom= 9.81D-01 WtEn= 1.89D-02
 Coeff-Com: -0.103D-01 0.453D-01 0.258D+00 0.707D+00
 Coeff-En:   0.000D+00 0.000D+00 0.000D+00 0.100D+01
 Coeff:     -0.101D-01 0.445D-01 0.253D+00 0.712D+00
 Gap=     0.369 Goal=   None    Shift=    0.000
 RMSDP=9.08D-05 MaxDP=8.10D-03 DE=-2.90D-02 OVMax= 8.86D-03

 Cycle   5  Pass 0  IDiag  1:
 RMSU=  4.46D-05    CP:  9.52D-01  9.29D-01  8.84D-01  8.38D-01
 E= -1747.15029209896     Delta-E=       -0.002202134510 Rises=F Damp=F
 DIIS: error= 4.13D-04 at cycle   5 NSaved=   5.
 NSaved= 5 IEnMin= 5 EnMin= -1747.15029209896     IErMin= 5 ErrMin= 4.13D-04
 ErrMax= 4.13D-04 EMaxC= 1.00D-01 BMatC= 1.15D-04 BMatP= 2.44D-03
 IDIUse=3 WtCom= 9.96D-01 WtEn= 4.13D-03
 Coeff-Com:  0.640D-03-0.181D-01-0.401D-01 0.577D-01 0.100D+01
 Coeff-En:   0.000D+00 0.000D+00 0.000D+00 0.000D+00 0.100D+01
 Coeff:      0.638D-03-0.180D-01-0.399D-01 0.575D-01 0.100D+01
 Gap=     0.369 Goal=   None    Shift=    0.000
 RMSDP=3.42D-05 MaxDP=1.89D-03 DE=-2.20D-03 OVMax= 4.85D-03

 Cycle   6  Pass 0  IDiag  1:
 RMSU=  1.50D-05    CP:  9.51D-01  9.30D-01  9.00D-01  9.27D-01  1.13D+00
 E= -1747.15051395993     Delta-E=       -0.000221860976 Rises=F Damp=F
 DIIS: error= 1.44D-04 at cycle   6 NSaved=   6.
 NSaved= 6 IEnMin= 6 EnMin= -1747.15051395993     IErMin= 6 ErrMin= 1.44D-04
 ErrMax= 1.44D-04 EMaxC= 1.00D-01 BMatC= 2.01D-05 BMatP= 1.15D-04
 IDIUse=3 WtCom= 9.99D-01 WtEn= 1.44D-03
 Coeff-Com:  0.132D-02-0.963D-02-0.378D-01-0.816D-01 0.205D+00 0.923D+00
 Coeff-En:   0.000D+00 0.000D+00 0.000D+00 0.000D+00 0.000D+00 0.100D+01
 Coeff:      0.132D-02-0.962D-02-0.378D-01-0.814D-01 0.204D+00 0.923D+00
 Gap=     0.370 Goal=   None    Shift=    0.000
 RMSDP=1.45D-05 MaxDP=9.92D-04 DE=-2.22D-04 OVMax= 1.77D-03

 Cycle   7  Pass 0  IDiag  1:
 RMSU=  4.98D-06    CP:  9.51D-01  9.31D-01  9.06D-01  9.47D-01  1.30D+00
                    CP:  1.14D+00
 E= -1747.15055540980     Delta-E=       -0.000041449869 Rises=F Damp=F
 DIIS: error= 4.75D-05 at cycle   7 NSaved=   7.
 NSaved= 7 IEnMin= 7 EnMin= -1747.15055540980     IErMin= 7 ErrMin= 4.75D-05
 ErrMax= 4.75D-05 EMaxC= 1.00D-01 BMatC= 2.29D-06 BMatP= 2.01D-05
 IDIUse=1 WtCom= 1.00D+00 WtEn= 0.00D+00
 Coeff-Com: -0.588D-04 0.177D-02 0.527D-02-0.113D-01-0.983D-01-0.118D-01
 Coeff-Com:  0.111D+01
 Coeff:     -0.588D-04 0.177D-02 0.527D-02-0.113D-01-0.983D-01-0.118D-01
 Coeff:      0.111D+01
 Gap=     0.370 Goal=   None    Shift=    0.000
 RMSDP=6.43D-06 MaxDP=3.40D-04 DE=-4.14D-05 OVMax= 1.31D-03

 Initial convergence to 1.0D-05 achieved.  Increase integral accuracy.
 Cycle   8  Pass 1  IDiag  1:
 E= -1747.15057278346     Delta-E=       -0.000017373662 Rises=F Damp=F
 DIIS: error= 8.17D-05 at cycle   1 NSaved=   1.
 NSaved= 1 IEnMin= 1 EnMin= -1747.15057278346     IErMin= 1 ErrMin= 8.17D-05
 ErrMax= 8.17D-05 EMaxC= 1.00D-01 BMatC= 1.56D-06 BMatP= 1.56D-06
 IDIUse=1 WtCom= 1.00D+00 WtEn= 0.00D+00
 Coeff-Com:  0.100D+01
 Coeff:      0.100D+01
 Gap=     0.370 Goal=   None    Shift=    0.000
 RMSDP=6.43D-06 MaxDP=3.40D-04 DE=-1.74D-05 OVMax= 3.59D-04

 Cycle   9  Pass 1  IDiag  1:
 RMSU=  1.52D-05    CP:  1.00D+00
 E= -1747.15057492203     Delta-E=       -0.000002138569 Rises=F Damp=F
 DIIS: error= 1.55D-05 at cycle   2 NSaved=   2.
 NSaved= 2 IEnMin= 2 EnMin= -1747.15057492203     IErMin= 2 ErrMin= 1.55D-05
 ErrMax= 1.55D-05 EMaxC= 1.00D-01 BMatC= 2.03D-07 BMatP= 1.56D-06
 IDIUse=1 WtCom= 1.00D+00 WtEn= 0.00D+00
 Coeff-Com:  0.551D-01 0.945D+00
 Coeff:      0.551D-01 0.945D+00
 Gap=     0.370 Goal=   None    Shift=    0.000
 RMSDP=1.62D-06 MaxDP=7.64D-05 DE=-2.14D-06 OVMax= 3.43D-04

 Cycle  10  Pass 1  IDiag  1:
 RMSU=  9.31D-07    CP:  1.00D+00  1.04D+00
 E= -1747.15057546611     Delta-E=       -0.000000544083 Rises=F Damp=F
 DIIS: error= 9.86D-06 at cycle   3 NSaved=   3.
 NSaved= 3 IEnMin= 3 EnMin= -1747.15057546611     IErMin= 3 ErrMin= 9.86D-06
 ErrMax= 9.86D-06 EMaxC= 1.00D-01 BMatC= 1.12D-07 BMatP= 2.03D-07
 IDIUse=1 WtCom= 1.00D+00 WtEn= 0.00D+00
 Coeff-Com: -0.971D-01 0.329D+00 0.768D+00
 Coeff:     -0.971D-01 0.329D+00 0.768D+00
 Gap=     0.370 Goal=   None    Shift=    0.000
 RMSDP=8.80D-07 MaxDP=5.19D-05 DE=-5.44D-07 OVMax= 1.49D-04

 Cycle  11  Pass 1  IDiag  1:
 RMSU=  5.43D-07    CP:  1.00D+00  1.06D+00  1.25D+00
 E= -1747.15057572746     Delta-E=       -0.000000261350 Rises=F Damp=F
 DIIS: error= 5.87D-06 at cycle   4 NSaved=   4.
 NSaved= 4 IEnMin= 4 EnMin= -1747.15057572746     IErMin= 4 ErrMin= 5.87D-06
 ErrMax= 5.87D-06 EMaxC= 1.00D-01 BMatC= 2.54D-08 BMatP= 1.12D-07
 IDIUse=1 WtCom= 1.00D+00 WtEn= 0.00D+00
 Coeff-Com:  0.134D-01-0.495D+00-0.453D+00 0.193D+01
 Coeff:      0.134D-01-0.495D+00-0.453D+00 0.193D+01
 Gap=     0.370 Goal=   None    Shift=    0.000
 RMSDP=1.30D-06 MaxDP=6.78D-05 DE=-2.61D-07 OVMax= 3.14D-04

 Cycle  12  Pass 1  IDiag  1:
 RMSU=  1.78D-07    CP:  1.00D+00  1.06D+00  2.01D+00  2.05D+00
 E= -1747.15057591011     Delta-E=       -0.000000182650 Rises=F Damp=F
 DIIS: error= 1.30D-06 at cycle   5 NSaved=   5.
 NSaved= 5 IEnMin= 5 EnMin= -1747.15057591011     IErMin= 5 ErrMin= 1.30D-06
 ErrMax= 1.30D-06 EMaxC= 1.00D-01 BMatC= 1.96D-09 BMatP= 2.54D-08
 IDIUse=1 WtCom= 1.00D+00 WtEn= 0.00D+00
 Coeff-Com:  0.109D-01-0.156D+00-0.180D+00 0.498D+00 0.827D+00
 Coeff:      0.109D-01-0.156D+00-0.180D+00 0.498D+00 0.827D+00
 Gap=     0.370 Goal=   None    Shift=    0.000
 RMSDP=1.93D-07 MaxDP=1.04D-05 DE=-1.83D-07 OVMax= 4.16D-05

 Cycle  13  Pass 1  IDiag  1:
 RMSU=  5.93D-08    CP:  1.00D+00  1.06D+00  2.10D+00  2.20D+00  1.15D+00
 E= -1747.15057591661     Delta-E=       -0.000000006497 Rises=F Damp=F
 DIIS: error= 8.70D-07 at cycle   6 NSaved=   6.
 NSaved= 6 IEnMin= 6 EnMin= -1747.15057591661     IErMin= 6 ErrMin= 8.70D-07
 ErrMax= 8.70D-07 EMaxC= 1.00D-01 BMatC= 4.07D-10 BMatP= 1.96D-09
 IDIUse=1 WtCom= 1.00D+00 WtEn= 0.00D+00
 Coeff-Com: -0.561D-02 0.138D+00 0.145D+00-0.522D+00-0.131D+00 0.138D+01
 Coeff:     -0.561D-02 0.138D+00 0.145D+00-0.522D+00-0.131D+00 0.138D+01
 Gap=     0.370 Goal=   None    Shift=    0.000
 RMSDP=1.02D-07 MaxDP=6.24D-06 DE=-6.50D-09 OVMax= 2.12D-05

 Cycle  14  Pass 1  IDiag  1:
 RMSU=  3.72D-08    CP:  1.00D+00  1.06D+00  2.12D+00  2.23D+00  1.41D+00
                    CP:  1.55D+00
 E= -1747.15057591836     Delta-E=       -0.000000001744 Rises=F Damp=F
 DIIS: error= 2.44D-07 at cycle   7 NSaved=   7.
 NSaved= 7 IEnMin= 7 EnMin= -1747.15057591836     IErMin= 7 ErrMin= 2.44D-07
 ErrMax= 2.44D-07 EMaxC= 1.00D-01 BMatC= 6.58D-11 BMatP= 4.07D-10
 IDIUse=1 WtCom= 1.00D+00 WtEn= 0.00D+00
 Coeff-Com: -0.358D-02 0.668D-01 0.757D-01-0.248D+00-0.160D+00 0.361D+00
 Coeff-Com:  0.908D+00
 Coeff:     -0.358D-02 0.668D-01 0.757D-01-0.248D+00-0.160D+00 0.361D+00
 Coeff:      0.908D+00
 Gap=     0.370 Goal=   None    Shift=    0.000
 RMSDP=3.74D-08 MaxDP=2.62D-06 DE=-1.74D-09 OVMax= 9.01D-06

 Cycle  15  Pass 1  IDiag  1:
 RMSU=  1.09D-08    CP:  1.00D+00  1.06D+00  2.14D+00  2.23D+00  1.48D+00
                    CP:  1.78D+00  1.28D+00
 E= -1747.15057591852     Delta-E=       -0.000000000163 Rises=F Damp=F
 DIIS: error= 1.41D-07 at cycle   8 NSaved=   8.
 NSaved= 8 IEnMin= 8 EnMin= -1747.15057591852     IErMin= 8 ErrMin= 1.41D-07
 ErrMax= 1.41D-07 EMaxC= 1.00D-01 BMatC= 1.00D-11 BMatP= 6.58D-11
 IDIUse=1 WtCom= 1.00D+00 WtEn= 0.00D+00
 Coeff-Com:  0.851D-03-0.211D-01-0.205D-01 0.778D-01 0.337D-01-0.243D+00
 Coeff-Com:  0.137D-01 0.116D+01
 Coeff:      0.851D-03-0.211D-01-0.205D-01 0.778D-01 0.337D-01-0.243D+00
 Coeff:      0.137D-01 0.116D+01
 Gap=     0.370 Goal=   None    Shift=    0.000
 RMSDP=1.59D-08 MaxDP=9.61D-07 DE=-1.63D-10 OVMax= 3.29D-06

 Cycle  16  Pass 1  IDiag  1:
 RMSU=  5.05D-09    CP:  1.00D+00  1.06D+00  2.14D+00  2.23D+00  1.50D+00
                    CP:  1.84D+00  1.50D+00  1.26D+00
 E= -1747.15057591857     Delta-E=       -0.000000000049 Rises=F Damp=F
 DIIS: error= 4.31D-08 at cycle   9 NSaved=   9.
 NSaved= 9 IEnMin= 9 EnMin= -1747.15057591857     IErMin= 9 ErrMin= 4.31D-08
 ErrMax= 4.31D-08 EMaxC= 1.00D-01 BMatC= 1.55D-12 BMatP= 1.00D-11
 IDIUse=1 WtCom= 1.00D+00 WtEn= 0.00D+00
 Coeff-Com:  0.599D-03-0.119D-01-0.126D-01 0.425D-01 0.319D-01-0.818D-01
 Coeff-Com: -0.122D+00 0.133D+00 0.102D+01
 Coeff:      0.599D-03-0.119D-01-0.126D-01 0.425D-01 0.319D-01-0.818D-01
 Coeff:     -0.122D+00 0.133D+00 0.102D+01
 Gap=     0.370 Goal=   None    Shift=    0.000
 RMSDP=5.20D-09 MaxDP=3.46D-07 DE=-4.91D-11 OVMax= 1.26D-06

 SCF Done:  E(RHF) =  -1747.15057592     A.U. after   16 cycles
             Convg  =    0.5199D-08             -V/T =  2.0010
 KE= 1.745396956992D+03 PE=-1.190118230918D+04 EE= 4.490563284059D+03
 Leave Link  502 at Mon Mar 14 11:43:38 2016, MaxMem=  655360000 cpu:    1300.3
 (Enter /software/g09/g09/l601.exe)
 Copying SCF densities to generalized density rwf, IOpCl= 0 IROHF=0.

 **********************************************************************

            Population analysis using the SCF density.

 **********************************************************************

 Orbital symmetries:
 BldTbl:  Degeneracy threshold= 1.00D-02
       Occupied  (A) (A) (A) (A) (A) (A) (A) (A) (A) (A) (A) (A)
                 (A) (A) (A) (A) (A) (A) (A) (A) (A) (A) (A) (A)
                 (A) (A) (A) (A) (A) (A) (A) (A) (A) (A) (A) (A)
                 (A) (A) (A) (A) (A) (A) (A) (A) (A) (A) (A) (A)
                 (A) (A) (A) (A) (A) (A) (A) (A) (A) (A) (A) (A)
                 (A) (A) (A) (A) (A) (A) (A) (A) (A) (A) (A) (A)
                 (A) (A) (A) (A) (A) (A) (A) (A) (A) (A) (A) (A)
                 (A) (A) (A) (A) (A) (A) (A) (A) (A) (A) (A) (A)
                 (A) (A) (A) (A) (A) (A) (A) (A) (A) (A) (A) (A)
                 (A) (A) (A) (A) (A) (A) (A) (A) (A) (A) (A) (A)
                 (A) (A) (A) (A) (A) (A) (A) (A) (A) (A) (A) (A)
                 (A) (A)
       Virtual   (A) (A) (A) (A) (A) (A) (A) (A) (A) (A) (A) (A)
                 (A) (A) (A) (A) (A) (A) (A) (A) (A) (A) (A) (A)
                 (A) (A) (A) (A) (A) (A) (A) (A) (A) (A) (A) (A)
                 (A) (A) (A) (A) (A) (A) (A) (A) (A) (A) (A) (A)
                 (A) (A) (A) (A) (A) (A) (A) (A) (A) (A) (A) (A)
                 (A) (A) (A) (A) (A) (A) (A) (A) (A) (A) (A) (A)
                 (A) (A) (A) (A) (A) (A) (A) (A) (A) (A) (A) (A)
                 (A) (A) (A) (A) (A) (A) (A) (A) (A) (A) (A) (A)
                 (A) (A) (A) (A) (A) (A) (A) (A) (A) (A) (A) (A)
                 (A) (A) (A) (A) (A) (A) (A) (A) (A) (A) (A) (A)
                 (A) (A) (A) (A) (A) (A) (A) (A) (A) (A) (A) (A)
                 (A) (A) (A) (A) (A) (A) (A) (A) (A) (A) (A) (A)
                 (A) (A) (A) (A) (A) (A) (A) (A) (A) (A) (A) (A)
                 (A) (A) (A) (A) (A) (A) (A) (A) (A) (A) (A) (A)
                 (A) (A) (A) (A) (A) (A) (A) (A) (A) (A) (A) (A)
                 (A) (A) (A) (A) (A) (A) (A) (A) (A) (A) (A) (A)
                 (A) (A) (A) (A) (A) (A) (A) (A) (A) (A) (A) (A)
                 (A) (A) (A) (A) (A) (A) (A) (A) (A) (A) (A) (A)
                 (A) (A) (A) (A) (A) (A) (A) (A) (A) (A) (A) (A)
                 (A) (A) (A) (A) (A) (A) (A) (A) (A) (A) (A) (A)
                 (A) (A) (A) (A) (A) (A) (A) (A) (A) (A) (A) (A)
                 (A) (A) (A) (A) (A) (A) (A) (A) (A) (A) (A) (A)
                 (A) (A) (A) (A) (A) (A) (A) (A) (A) (A) (A) (A)
                 (A) (A) (A) (A) (A) (A) (A) (A) (A) (A) (A) (A)
                 (A) (A) (A) (A) (A) (A) (A) (A) (A) (A) (A) (A)
                 (A) (A) (A) (A) (A) (A) (A) (A) (A) (A) (A) (A)
                 (A) (A) (A) (A) (A) (A) (A) (A) (A) (A) (A) (A)
                 (A) (A) (A) (A) (A) (A) (A) (A) (A) (A) (A) (A)
                 (A) (A) (A) (A) (A) (A) (A) (A) (A) (A) (A) (A)
                 (A) (A) (A) (A) (A) (A) (A) (A) (A) (A) (A) (A)
                 (A) (A) (A) (A) (A) (A) (A) (A) (A) (A) (A) (A)
                 (A) (A) (A) (A) (A) (A) (A) (A) (A) (A) (A) (A)
                 (A) (A) (A) (A) (A) (A) (A) (A) (A) (A) (A) (A)
                 (A) (A) (A) (A) (A) (A) (A) (A) (A) (A) (A) (A)
                 (A) (A) (A) (A) (A) (A) (A) (A) (A) (A) (A) (A)
                 (A) (A) (A) (A) (A) (A) (A) (A) (A) (A) (A) (A)
                 (A) (A) (A) (A) (A) (A) (A) (A) (A) (A) (A) (A)
                 (A) (A) (A) (A) (A) (A) (A) (A) (A) (A) (A) (A)
                 (A) (A) (A) (A) (A) (A) (A) (A) (A) (A) (A) (A)
                 (A) (A) (A) (A) (A) (A) (A) (A) (A) (A) (A)
 The electronic state is 1-A.
 Alpha  occ. eigenvalues --  -26.42406 -20.70783 -20.69204 -20.66844 -20.64047
 Alpha  occ. eigenvalues --  -20.63362 -15.85524 -15.72017 -15.71308 -15.65375
 Alpha  occ. eigenvalues --  -15.64116 -11.46121 -11.45649 -11.44723 -11.44030
 Alpha  occ. eigenvalues --  -11.42991 -11.42624 -11.42454 -11.42320 -11.41448
 Alpha  occ. eigenvalues --  -11.40153 -11.39980 -11.38336 -11.37523 -11.37392
 Alpha  occ. eigenvalues --  -11.36786 -11.36378 -11.35676 -11.35412 -11.34162
 Alpha  occ. eigenvalues --  -11.34128 -11.33658 -11.33251 -11.32974 -11.32875
 Alpha  occ. eigenvalues --  -11.31165 -11.30697  -1.73147  -1.53870  -1.50624
 Alpha  occ. eigenvalues --   -1.48919  -1.48598  -1.47573  -1.44922  -1.42353
 Alpha  occ. eigenvalues --   -1.36650  -1.34978  -1.31501  -1.27148  -1.22739
 Alpha  occ. eigenvalues --   -1.21882  -1.21177  -1.18607  -1.17169  -1.15838
 Alpha  occ. eigenvalues --   -1.12870  -1.12448  -1.10014  -1.08476  -1.04915
 Alpha  occ. eigenvalues --   -1.03097  -1.01823  -1.00867  -1.00242  -0.99706
 Alpha  occ. eigenvalues --   -0.96975  -0.96000  -0.94274  -0.93222  -0.90447
 Alpha  occ. eigenvalues --   -0.89160  -0.88255  -0.86322  -0.85976  -0.85505
 Alpha  occ. eigenvalues --   -0.84529  -0.83868  -0.83152  -0.81863  -0.81207
 Alpha  occ. eigenvalues --   -0.81066  -0.80407  -0.79974  -0.79659  -0.78018
 Alpha  occ. eigenvalues --   -0.77643  -0.76965  -0.75829  -0.74973  -0.74433
 Alpha  occ. eigenvalues --   -0.73245  -0.72427  -0.72156  -0.71905  -0.71695
 Alpha  occ. eigenvalues --   -0.71669  -0.71133  -0.70731  -0.69985  -0.69433
 Alpha  occ. eigenvalues --   -0.69291  -0.68572  -0.68278  -0.67938  -0.67430
 Alpha  occ. eigenvalues --   -0.66744  -0.66022  -0.65862  -0.64894  -0.64484
 Alpha  occ. eigenvalues --   -0.63714  -0.63443  -0.62300  -0.61306  -0.61106
 Alpha  occ. eigenvalues --   -0.59709  -0.59588  -0.59115  -0.58743  -0.57702
 Alpha  occ. eigenvalues --   -0.57017  -0.56071  -0.55295  -0.53492  -0.52968
 Alpha  occ. eigenvalues --   -0.52616  -0.52328  -0.52084  -0.49878  -0.49043
 Alpha  occ. eigenvalues --   -0.47715  -0.43586  -0.40839  -0.39624
 Alpha virt. eigenvalues --   -0.02628  -0.01308   0.00626   0.03373   0.05748
 Alpha virt. eigenvalues --    0.06642   0.07783   0.09090   0.09311   0.09684
 Alpha virt. eigenvalues --    0.12316   0.13536   0.13745   0.14562   0.15597
 Alpha virt. eigenvalues --    0.16528   0.16826   0.17344   0.17798   0.18087
 Alpha virt. eigenvalues --    0.18819   0.19634   0.19800   0.20046   0.20576
 Alpha virt. eigenvalues --    0.21076   0.21142   0.21231   0.22010   0.22224
 Alpha virt. eigenvalues --    0.22332   0.22979   0.23389   0.23679   0.24087
 Alpha virt. eigenvalues --    0.24608   0.25405   0.25498   0.25844   0.26392
 Alpha virt. eigenvalues --    0.26530   0.27020   0.27384   0.27889   0.29302
 Alpha virt. eigenvalues --    0.30104   0.30804   0.30848   0.32628   0.32728
 Alpha virt. eigenvalues --    0.33271   0.33737   0.34754   0.35382   0.35743
 Alpha virt. eigenvalues --    0.36758   0.37371   0.37760   0.38684   0.39346
 Alpha virt. eigenvalues --    0.40095   0.40506   0.41445   0.42152   0.42873
 Alpha virt. eigenvalues --    0.43577   0.44002   0.44736   0.45893   0.46976
 Alpha virt. eigenvalues --    0.48122   0.48672   0.50409   0.51617   0.52360
 Alpha virt. eigenvalues --    0.54942   0.55786   0.57434   0.58075   0.58526
 Alpha virt. eigenvalues --    0.59028   0.59991   0.60327   0.61278   0.62785
 Alpha virt. eigenvalues --    0.63295   0.63366   0.63670   0.64655   0.65118
 Alpha virt. eigenvalues --    0.65555   0.65821   0.66569   0.66804   0.67312
 Alpha virt. eigenvalues --    0.68044   0.68931   0.69316   0.69412   0.69946
 Alpha virt. eigenvalues --    0.70292   0.70449   0.71140   0.71893   0.72435
 Alpha virt. eigenvalues --    0.73132   0.73930   0.74252   0.74682   0.75556
 Alpha virt. eigenvalues --    0.75864   0.76510   0.76783   0.76898   0.77208
 Alpha virt. eigenvalues --    0.77383   0.78170   0.78328   0.78599   0.80028
 Alpha virt. eigenvalues --    0.80204   0.81004   0.81660   0.81947   0.82416
 Alpha virt. eigenvalues --    0.82678   0.83322   0.84074   0.84792   0.85354
 Alpha virt. eigenvalues --    0.85766   0.87064   0.87199   0.88497   0.89082
 Alpha virt. eigenvalues --    0.89381   0.89957   0.90644   0.91250   0.92637
 Alpha virt. eigenvalues --    0.92871   0.93611   0.95034   0.95274   0.95923
 Alpha virt. eigenvalues --    0.96554   0.97414   0.97704   0.98106   0.98844
 Alpha virt. eigenvalues --    0.99019   0.99913   1.00486   1.00809   1.01551
 Alpha virt. eigenvalues --    1.01740   1.02335   1.02796   1.02974   1.03299
 Alpha virt. eigenvalues --    1.03637   1.04086   1.04212   1.04924   1.05125
 Alpha virt. eigenvalues --    1.05471   1.05501   1.06259   1.06510   1.07016
 Alpha virt. eigenvalues --    1.07171   1.07266   1.07598   1.08159   1.08428
 Alpha virt. eigenvalues --    1.08966   1.09228   1.09559   1.10017   1.10821
 Alpha virt. eigenvalues --    1.11123   1.11850   1.12255   1.12328   1.13322
 Alpha virt. eigenvalues --    1.14207   1.14687   1.15591   1.16046   1.16591
 Alpha virt. eigenvalues --    1.17585   1.18801   1.19212   1.19628   1.20279
 Alpha virt. eigenvalues --    1.21237   1.21924   1.22713   1.23910   1.24117
 Alpha virt. eigenvalues --    1.24420   1.25431   1.26053   1.27325   1.28851
 Alpha virt. eigenvalues --    1.29168   1.29763   1.30509   1.31252   1.31404
 Alpha virt. eigenvalues --    1.32677   1.33498   1.33725   1.34179   1.35063
 Alpha virt. eigenvalues --    1.36290   1.37492   1.38063   1.39015   1.41214
 Alpha virt. eigenvalues --    1.41938   1.42073   1.43047   1.43574   1.44388
 Alpha virt. eigenvalues --    1.45709   1.46884   1.48229   1.48964   1.50714
 Alpha virt. eigenvalues --    1.51897   1.52104   1.52912   1.53510   1.53891
 Alpha virt. eigenvalues --    1.55019   1.56694   1.57585   1.58242   1.59290
 Alpha virt. eigenvalues --    1.59976   1.60207   1.61189   1.61820   1.62863
 Alpha virt. eigenvalues --    1.62986   1.63955   1.64338   1.64935   1.65963
 Alpha virt. eigenvalues --    1.66384   1.66966   1.67312   1.68561   1.69678
 Alpha virt. eigenvalues --    1.69731   1.70442   1.71630   1.72580   1.73888
 Alpha virt. eigenvalues --    1.75579   1.76418   1.78263   1.80505   1.82700
 Alpha virt. eigenvalues --    1.83224   1.84056   1.85348   1.86670   1.87706
 Alpha virt. eigenvalues --    1.88386   1.89123   1.89975   1.90565   1.92351
 Alpha virt. eigenvalues --    1.93292   1.93897   1.94177   1.94838   1.96633
 Alpha virt. eigenvalues --    1.97415   1.97620   1.98356   1.98550   1.99876
 Alpha virt. eigenvalues --    2.00129   2.00978   2.01344   2.02018   2.02430
 Alpha virt. eigenvalues --    2.02996   2.03700   2.04435   2.05072   2.05504
 Alpha virt. eigenvalues --    2.05836   2.07176   2.07686   2.08179   2.08521
 Alpha virt. eigenvalues --    2.09001   2.09993   2.10604   2.10819   2.11121
 Alpha virt. eigenvalues --    2.12090   2.12414   2.14460   2.14688   2.16081
 Alpha virt. eigenvalues --    2.16623   2.18587   2.19352   2.19870   2.20668
 Alpha virt. eigenvalues --    2.21182   2.21421   2.22030   2.23045   2.23489
 Alpha virt. eigenvalues --    2.23851   2.24276   2.25403   2.26501   2.27153
 Alpha virt. eigenvalues --    2.27396   2.27920   2.30649   2.30873   2.31393
 Alpha virt. eigenvalues --    2.31521   2.31676   2.32623   2.33521   2.33636
 Alpha virt. eigenvalues --    2.34431   2.34633   2.35264   2.38082   2.38831
 Alpha virt. eigenvalues --    2.39000   2.39234   2.39502   2.40668   2.41837
 Alpha virt. eigenvalues --    2.42612   2.42898   2.43773   2.43919   2.47272
 Alpha virt. eigenvalues --    2.47580   2.48252   2.48494   2.48977   2.49579
 Alpha virt. eigenvalues --    2.51111   2.51699   2.52238   2.52501   2.53520
 Alpha virt. eigenvalues --    2.54357   2.55737   2.56617   2.56922   2.57484
 Alpha virt. eigenvalues --    2.58139   2.58696   2.59086   2.59882   2.61197
 Alpha virt. eigenvalues --    2.62212   2.62932   2.63636   2.64315   2.65026
 Alpha virt. eigenvalues --    2.65846   2.67652   2.67923   2.68774   2.69893
 Alpha virt. eigenvalues --    2.70657   2.70819   2.73609   2.75104   2.75162
 Alpha virt. eigenvalues --    2.76477   2.77552   2.78313   2.79080   2.79861
 Alpha virt. eigenvalues --    2.81086   2.82220   2.83005   2.83959   2.87211
 Alpha virt. eigenvalues --    2.87646   2.88294   2.88638   2.89053   2.91289
 Alpha virt. eigenvalues --    2.92043   2.92623   2.92935   2.93815   2.94683
 Alpha virt. eigenvalues --    2.95695   2.97232   2.97389   2.98095   2.99677
 Alpha virt. eigenvalues --    3.00043   3.00276   3.03696   3.03997   3.05513
 Alpha virt. eigenvalues --    3.06596   3.08116   3.08920   3.10077   3.12587
 Alpha virt. eigenvalues --    3.13639   3.16834   3.17118   3.18431   3.22802
 Alpha virt. eigenvalues --    3.23213   3.25683   3.25938   3.26284   3.27504
 Alpha virt. eigenvalues --    3.27829   3.31245   3.37780   3.39333   3.40487
 Alpha virt. eigenvalues --    3.40642   3.45805   3.48519   3.63676   3.73653
 Alpha virt. eigenvalues --    3.80954   3.85924   4.21559   4.25102   4.28083
 Alpha virt. eigenvalues --    4.33889   4.37491   4.40399   4.41801   4.44691
 Alpha virt. eigenvalues --    4.46484   4.48173   4.51584   4.52444   4.54652
 Alpha virt. eigenvalues --    4.56012   4.56557   4.57950   4.60469   4.63384
 Alpha virt. eigenvalues --    4.66054   4.66695   4.67965   4.68585   4.72903
 Alpha virt. eigenvalues --    4.76975   4.83378   4.86875   4.88214   4.89781
 Alpha virt. eigenvalues --    4.92748   4.93375   4.96713   4.98174   5.02194
 Alpha virt. eigenvalues --    5.08951   5.16114   5.41095   6.10041
          Condensed to atoms (all electrons):
 Mulliken atomic charges:
              1
     1  C    0.252975
     2  C    0.329974
     3  C    0.392732
     4  C   -0.486264
     5  C    0.218121
     6  C    0.259001
     7  C   -0.361414
     8  C   -0.338645
     9  C    0.095088
    10  C   -0.347102
    11  N   -0.760468
    12  C   -0.224632
    13  C    0.273178
    14  C   -0.302284
    15  F   -0.402425
    16  N   -0.782794
    17  O   -0.663604
    18  C   -0.124940
    19  C    0.746619
    20  N   -0.568429
    21  C    0.011532
    22  C   -0.007202
    23  C   -0.020420
    24  O   -0.694769
    25  C   -0.323975
    26  N   -0.665916
    27  C    0.600066
    28  C    0.360837
    29  C   -0.158474
    30  C   -0.271469
    31  O   -0.816407
    32  N   -0.867138
    33  C    0.731061
    34  C   -0.075253
    35  O   -0.684437
    36  O   -0.572370
    37  C   -0.203530
    38  H    0.200842
    39  H    0.264097
    40  H    0.205894
    41  H    0.228516
    42  H    0.221676
    43  H    0.205408
    44  H    0.195288
    45  H    0.186965
    46  H    0.189388
    47  H    0.204297
    48  H    0.204733
    49  H    0.446061
    50  H    0.248094
    51  H    0.277028
    52  H    0.255725
    53  H    0.259319
    54  H    0.240376
    55  H    0.231629
    56  H    0.215868
    57  H    0.275956
    58  H    0.239649
    59  H    0.503702
    60  H    0.227929
    61  H    0.267466
    62  H    0.226166
    63  H    0.171113
    64  H    0.171830
    65  H    0.429612
    66  H    0.458550
 Sum of Mulliken atomic charges =   1.00000
 Mulliken charges with hydrogens summed into heavy atoms:
              1
     1  C    0.252975
     2  C    0.329974
     3  C    0.392732
     4  C   -0.021325
     5  C    0.424015
     6  C    0.259001
     7  C    0.088778
     8  C    0.062051
     9  C    0.471440
    10  C    0.061928
    11  N    0.144143
    12  C    0.300490
    13  C    0.273178
    14  C   -0.046559
    15  F   -0.402425
    16  N   -0.782794
    17  O   -0.663604
    18  C    0.134380
    19  C    0.746619
    20  N   -0.568429
    21  C    0.251908
    22  C   -0.007202
    23  C   -0.020420
    24  O   -0.694769
    25  C    0.123523
    26  N   -0.665916
    27  C    0.600066
    28  C    0.360837
    29  C    0.117482
    30  C   -0.031821
    31  O   -0.312706
    32  N   -0.437526
    33  C    0.731061
    34  C    0.420142
    35  O   -0.684437
    36  O   -0.572370
    37  C    0.365579
 Sum of Mulliken charges with hydrogens summed into heavy atoms =   1.00000
 DipInt: DoE/N= T F RetVal/Mat= T F Init=T NMatP=  1 IDeriv=0 Min/MaxMlt=  0  4
 Entering OneElI...
 OneElI was handed   654404953 working-precision words.
 Multipole integrals L=0 to 4 MinM= 0 MaxM= 0.
 Requested accuracy = 0.1000D-12
 PrsmSu:  NPrtUS=   1 ThrOK=F IAlg=1
 PRISM was handed   653298652 working-precision words and 11683 shell-pairs
 IPart=  0 NShTot=       11683 NBatch=         142 AvBLen=        82.3
 Electronic moments (au):
       -268.00000000         -4.33707758         -1.36834760         -1.95553854
     -30260.62509427      -3051.84851683       -788.01498437         21.51499551
         12.16946327          2.06569287      88765.33303757      -4586.39737030
       -373.16226978     -13783.42975298     -22015.35675560      -3252.45674389
       3116.17062067        279.10658213        377.20560816       7456.09056957
   -6032502.40671459     -96662.64161570      -7085.22760364     169292.36854079
      87979.06722762     -32858.06290925       6024.01092881        207.03084088
       -919.20219898    -344796.03468151     -83388.47259202      -8824.37232266
     -45777.79888946      12993.26223637       3584.22518307
 Electronic spatial extent (au):  <R**2>=          34100.4886
 DipInt: DoE/N= F T RetVal/Mat= T F Init=T NMatP=  1 IDeriv=0 Min/MaxMlt=  0  4
 Nuclear    moments (au):
        269.00000000          0.00000000          0.00000000          0.00000000
      30164.44265722       2899.37220766        631.26836020          0.00000000
          0.00000000          0.00000000     -89047.66764847       4527.91620322
        350.33526683      13815.51028264      21752.91579701       3062.17899505
      -3133.73550041       -294.60340493       -416.50110277      -7409.69672288
    5937525.69017500      86480.11561923       4422.30488197    -162870.39637336
     -85230.19269334      32689.54817757      -6030.90483191        -55.92369383
        934.59552508     325083.82346419      64203.30192111       6651.91135585
      44937.88090305     -12479.65997642      -3266.69905168
 Total      moments (au):
          1.00000000         -4.33707758         -1.36834760         -1.95553854
        -96.18243705       -152.47630917       -156.74662417         21.51499551
         12.16946327          2.06569287       -282.33461090        -58.48116708
        -22.82700295         32.08052966       -262.44095859       -190.27774884
        -17.56487974        -15.49682280        -39.29549461         46.39384668
     -94976.71653960     -10182.52599647      -2662.92272167       6421.97216743
       2748.87453429       -168.51473168         -6.89390310        151.10714705
         15.39332610     -19712.21121732     -19185.17067091      -2172.46096680
       -839.91798641        513.60225994        317.52613139
 Traceless Quadrup. (au):
         38.95268642        -17.34118571        -21.61150071         21.51499551
         12.16946327          2.06569287
 Charge=              1.0000 electrons
 Dipole moment (field-independent basis, Debye):
    X=            -11.0238    Y=             -3.4780    Z=             -4.9705  Tot=             12.5827
 Quadrupole moment (field-independent basis, Debye-Ang):
   XX=           -129.3687   YY=           -205.0858   ZZ=           -210.8296
   XY=             28.9384   XZ=             16.3683   YZ=              2.7784
 Traceless Quadrupole moment (field-independent basis, Debye-Ang):
   XX=             52.3927   YY=            -23.3245   ZZ=            -29.0682
   XY=             28.9384   XZ=             16.3683   YZ=              2.7784
 Octapole moment (field-independent basis, Debye-Ang**2):
  XXX=           -200.9549  YYY=            -41.6246  ZZZ=            -16.2474  XYY=             22.8337
  XXY=           -186.7954  XXZ=           -135.4324  XZZ=            -12.5020  YZZ=            -11.0300
  YYZ=            -27.9690  XYZ=             33.0214
 Hexadecapole moment (field-independent basis, Debye-Ang**3):
 XXXX=         -35772.7834 YYYY=          -3835.2273 ZZZZ=          -1002.9843 XXXY=           2418.8225
 XXXZ=           1035.3579 YYYX=            -63.4707 YYYZ=             -2.5966 ZZZX=             56.9142
 ZZZY=              5.7979 XXYY=          -7424.5635 XXZZ=          -7226.0548 YYZZ=           -818.2529
 XXYZ=           -316.3534 YYXZ=            193.4472 ZZXY=            119.5956
 N-N= 3.918071492208D+03 E-N=-1.190118230774D+04  KE= 1.745396956992D+03
 Entering OneElI...
 OneElI was handed   653651152 working-precision words.
 Calculate electrostatic properties
    NBasis =   613  MinDer = 0  MaxDer = 0
    NGrid  =    66  NMatD  =   1
 Requested accuracy = 0.1000D-12
 PrsmSu:  NPrtUS=   8 ThrOK=T IAlg=1
 PRISM was handed    81340327 working-precision words and  9910 shell-pairs
 PRISM was handed    81340327 working-precision words and  9910 shell-pairs
 PRISM was handed    81340327 working-precision words and  9910 shell-pairs
 PRISM was handed    81340327 working-precision words and  9910 shell-pairs
 PRISM was handed    81340327 working-precision words and  9910 shell-pairs
 PRISM was handed    81340327 working-precision words and  9910 shell-pairs
 PRISM was handed    81340327 working-precision words and  9910 shell-pairs
 PRISM was handed    81340327 working-precision words and  9910 shell-pairs
 IPart=  2 NShTot=       82104 NBatch=        1276 AvBLen=        64.3
 IPart=  7 NShTot=       80388 NBatch=        1250 AvBLen=        64.3
 IPart=  0 NShTot=       83094 NBatch=        1292 AvBLen=        64.3
 IPart=  4 NShTot=       81774 NBatch=        1271 AvBLen=        64.3
 IPart=  1 NShTot=       82764 NBatch=        1286 AvBLen=        64.4
 IPart=  5 NShTot=       81180 NBatch=        1262 AvBLen=        64.3
 IPart=  3 NShTot=       81972 NBatch=        1274 AvBLen=        64.3
 IPart=  6 NShTot=       80784 NBatch=        1256 AvBLen=        64.3
 --------------------------------------------------------
       Center         ----      EFG at Nuclei      ----
                      3XX-RR        3YY-RR        3ZZ-RR
 --------------------------------------------------------
     1   Atom        0.180780      0.089428     -0.270208
     2   Atom        0.220033      0.084253     -0.304286
     3   Atom        0.231059     -0.199354     -0.031705
     4   Atom       -0.089059      0.079341      0.009718
     5   Atom        0.091376     -0.225700      0.134323
     6   Atom        0.237979     -0.356140      0.118161
     7   Atom       -0.083494      0.051952      0.031542
     8   Atom        0.060294     -0.040536     -0.019759
     9   Atom       -0.276445      0.104197      0.172247
    10   Atom        0.083782      0.030567     -0.114349
    11   Atom        0.037613      0.013101     -0.050714
    12   Atom       -0.023463     -0.181651      0.205114
    13   Atom        0.089900      0.007750     -0.097649
    14   Atom        0.098272      0.157780     -0.256051
    15   Atom        0.283963     -1.712677      1.428714
    16   Atom        0.900258     -0.547922     -0.352337
    17   Atom       -1.012311     -0.592380      1.604691
    18   Atom        0.226474      0.264939     -0.491413
    19   Atom        0.345458      0.021774     -0.367232
[...]
 1650 Fit       0.050833
 1651 Fit       0.063389
 1652 Fit       0.071219
 1653 Fit       0.058835
 1654 Fit       0.063938
 1655 Fit       0.067874
 1656 Fit       0.071311
 1657 Fit       0.072006
 1658 Fit       0.070021
 1659 Fit       0.070771
 1660 Fit       0.072214
 1661 Fit       0.073779
 1662 Fit       0.072183
 1663 Fit       0.075139
 1664 Fit       0.055494
 1665 Fit       0.063611
 1666 Fit       0.072697
 1667 Fit       0.082400
 1668 Fit       0.047334
 1669 Fit       0.054159
 1670 Fit       0.061278
 1671 Fit       0.069355
 1672 Fit       0.078066
 1673 Fit       0.083999
 1674 Fit       0.081563
 1675 Fit       0.058319
 1676 Fit       0.059436
 1677 Fit       0.066672
 1678 Fit       0.074169
 1679 Fit       0.073295
 1680 Fit       0.065113
 1681 Fit       0.066220
 1682 Fit       0.064381
 1683 Fit       0.056021
 1684 Fit       0.057673
 1685 Fit       0.065388
 1686 Fit       0.072176
 1687 Fit       0.070491
 1688 Fit       0.052950
 1689 Fit       0.060735
 1690 Fit       0.068696
 1691 Fit       0.076702
 1692 Fit       0.080311
 1693 Fit       0.055713
 1694 Fit       0.063571
 1695 Fit       0.072140
 1696 Fit       0.081207
 1697 Fit       0.082715
 1698 Fit       0.097659
 1699 Fit       0.090010
 1700 Fit       0.109762
 1701 Fit       0.106942
 1702 Fit       0.095210
 1703 Fit       0.076534
 1704 Fit       0.117516
 1705 Fit       0.105451
 1706 Fit       0.091032
 1707 Fit       0.117909
 1708 Fit       0.103411
 1709 Fit       0.137470
 1710 Fit       0.143449
 1711 Fit       0.149709
 1712 Fit       0.141622
 1713 Fit       0.150591
 1714 Fit       0.144500
 1715 Fit       0.051642
 1716 Fit       0.055440
 1717 Fit       0.057738
 1718 Fit       0.051938
 1719 Fit       0.053455
 1720 Fit       0.056814
 1721 Fit       0.059181
 1722 Fit       0.060999
 1723 Fit       0.058524
 1724 Fit       0.062216
 1725 Fit       0.062150
 1726 Fit       0.055580
 1727 Fit       0.057786
 1728 Fit       0.054736
 1729 Fit       0.063096
 1730 Fit       0.071453
 1731 Fit       0.064513
 1732 Fit       0.068044
 1733 Fit       0.073208
 1734 Fit       0.073228
 1735 Fit       0.083628
 1736 Fit       0.081171
 1737 Fit       0.058338
 1738 Fit       0.098712
 1739 Fit       0.090847
 1740 Fit       0.090357
 1741 Fit       0.101617
 1742 Fit       0.094209
 1743 Fit       0.109856
 1744 Fit       0.103275
 1745 Fit       0.145619
 1746 Fit       0.124552
 1747 Fit       0.110870
 1748 Fit       0.105204
 1749 Fit       0.090151
 1750 Fit       0.100090
 1751 Fit       0.091562
 1752 Fit       0.098208
 1753 Fit       0.107094
 1754 Fit       0.122032
 1755 Fit       0.099647
 1756 Fit       0.097522
 1757 Fit       0.107031
 1758 Fit       0.107989
 1759 Fit       0.143534
 1760 Fit       0.140019
 1761 Fit       0.115177
 1762 Fit       0.120079
 1763 Fit       0.128024
 1764 Fit       0.120973
 1765 Fit       0.125491
 1766 Fit       0.101191
 1767 Fit       0.109169
 1768 Fit       0.121475
 1769 Fit       0.051469
 1770 Fit       0.050077
 1771 Fit       0.051420
 1772 Fit       0.052452
 1773 Fit       0.050732
 1774 Fit       0.048697
 1775 Fit       0.052205
 1776 Fit       0.052114
 1777 Fit       0.050436
 1778 Fit       0.050764
 1779 Fit       0.050321
 1780 Fit       0.052578
 1781 Fit       0.052479
 1782 Fit       0.054006
 1783 Fit       0.053170
 1784 Fit       0.055088
 1785 Fit       0.054595
 1786 Fit       0.054769
 1787 Fit       0.062699
 1788 Fit       0.056530
 1789 Fit       0.054192
 1790 Fit       0.058162
 1791 Fit       0.070047
 1792 Fit       0.060945
 1793 Fit       0.055804
 1794 Fit       0.055322
 1795 Fit       0.083528
 1796 Fit       0.069245
 1797 Fit       0.060181
 1798 Fit       0.056473
 1799 Fit       0.058929
 1800 Fit       0.071020
 1801 Fit       0.062011
 1802 Fit       0.059379
 1803 Fit       0.069570
 1804 Fit       0.064321
 1805 Fit       0.060613
 1806 Fit       0.060646
 1807 Fit       0.058114
 1808 Fit       0.066333
 1809 Fit       0.066249
 1810 Fit       0.061496
 1811 Fit       0.060670
 1812 Fit       0.046294
 1813 Fit       0.051859
 1814 Fit       0.041411
 1815 Fit       0.043566
 1816 Fit       0.041868
 1817 Fit       0.038348
 1818 Fit       0.043332
 1819 Fit       0.037442
 1820 Fit       0.039501
 1821 Fit       0.040116
 1822 Fit       0.038367
 1823 Fit       0.044225
 1824 Fit       0.043847
 1825 Fit       0.040631
 1826 Fit       0.044937
 1827 Fit       0.048915
 1828 Fit       0.046018
 1829 Fit       0.053912
 1830 Fit       0.050508
 1831 Fit       0.049035
 1832 Fit       0.050285
 1833 Fit       0.051733
 1834 Fit       0.054655
 1835 Fit       0.046944
 1836 Fit       0.052358
 1837 Fit       0.051261
 1838 Fit       0.052995
 1839 Fit       0.048074
 1840 Fit       0.050809
 1841 Fit       0.051341
 1842 Fit       0.052748
 1843 Fit       0.056158
 1844 Fit       0.055220
 1845 Fit       0.059442
 1846 Fit       0.051241
 1847 Fit       0.057097
 1848 Fit       0.056503
 1849 Fit       0.045612
 1850 Fit       0.039694
 1851 Fit       0.044553
 1852 Fit       0.050439
 1853 Fit       0.052769
 1854 Fit       0.043519
 1855 Fit       0.035308
 1856 Fit       0.041363
 1857 Fit       0.037536
 1858 Fit       0.032810
 1859 Fit       0.033495
 1860 Fit       0.032301
 1861 Fit       0.040445
 1862 Fit       0.031794
 1863 Fit       0.033429
 1864 Fit       0.040310
 1865 Fit       0.032430
 1866 Fit       0.035892
 1867 Fit       0.042730
 1868 Fit       0.035321
 1869 Fit       0.039774
 1870 Fit       0.040468
 1871 Fit       0.045205
 1872 Fit       0.048242
 1873 Fit       0.052275
 1874 Fit       0.051230
 1875 Fit       0.045763
 1876 Fit       0.053905
 1877 Fit       0.055113
 1878 Fit       0.051483
 1879 Fit       0.057724
 1880 Fit       0.048437
 1881 Fit       0.045245
 1882 Fit       0.061926
 1883 Fit       0.056401
 1884 Fit       0.049474
 1885 Fit       0.050313
 1886 Fit       0.055810
 1887 Fit       0.058440
 1888 Fit       0.059290
 1889 Fit       0.064133
 1890 Fit       0.068833
 1891 Fit       0.070394
 1892 Fit       0.076914
 1893 Fit       0.086857
 1894 Fit       0.092992
 1895 Fit       0.080098
 1896 Fit       0.088958
 1897 Fit       0.082173
 1898 Fit       0.072805
 1899 Fit       0.092673
 1900 Fit       0.090480
 1901 Fit       0.100575
 1902 Fit       0.094987
 1903 Fit       0.091583
 1904 Fit       0.098697
 1905 Fit       0.111993
 1906 Fit       0.104315
 1907 Fit       0.099622
 1908 Fit       0.124106
 1909 Fit       0.125180
 1910 Fit       0.123566
 1911 Fit       0.130044
 1912 Fit       0.097449
 1913 Fit       0.105782
 1914 Fit       0.094184
 1915 Fit       0.098078
 1916 Fit       0.093853
 1917 Fit       0.087659
 1918 Fit       0.095788
 1919 Fit       0.083544
 1920 Fit       0.081417
 1921 Fit       0.093075
 1922 Fit       0.093631
 1923 Fit       0.088817
 1924 Fit       0.089368
 1925 Fit       0.093108
 1926 Fit       0.092884
 1927 Fit       0.100306
 1928 Fit       0.089244
 1929 Fit       0.081063
 1930 Fit       0.096426
 1931 Fit       0.088542
 1932 Fit       0.101801
 1933 Fit       0.094546
 1934 Fit       0.099983
 1935 Fit       0.094743
 1936 Fit       0.099356
 1937 Fit       0.111126
 1938 Fit       0.098814
 1939 Fit       0.139234
 1940 Fit       0.140409
 1941 Fit       0.121812
 1942 Fit       0.117193
 1943 Fit       0.111333
 1944 Fit       0.105512
 1945 Fit       0.105549
 1946 Fit       0.049133
 1947 Fit       0.046342
 1948 Fit       0.054127
 1949 Fit       0.061965
 1950 Fit       0.058950
 1951 Fit       0.049321
 1952 Fit       0.044551
 1953 Fit       0.050402
 1954 Fit       0.054568
 1955 Fit       0.054179
 1956 Fit       0.048347
 1957 Fit       0.047158
 1958 Fit       0.048335
 1959 Fit       0.062508
 1960 Fit       0.055580
 1961 Fit       0.054132
 1962 Fit       0.067097
 1963 Fit       0.063688
 1964 Fit       0.071454
 1965 Fit       0.083291
 1966 Fit       0.075869
 1967 Fit       0.081335
 1968 Fit       0.094547
 1969 Fit       0.090291
 1970 Fit       0.089340
 1971 Fit       0.081352
 1972 Fit       0.106475
 1973 Fit       0.091056
 1974 Fit       0.077993
 1975 Fit       0.094599
 1976 Fit       0.083759
 1977 Fit       0.088538
 1978 Fit       0.071996
 1979 Fit       0.087244
 1980 Fit       0.074221
 1981 Fit       0.064037
 1982 Fit       0.060478
 1983 Fit       0.067612
 1984 Fit       0.068737
 1985 Fit       0.071778
 1986 Fit       0.070858
 1987 Fit       0.073646
 1988 Fit       0.069045
 1989 Fit       0.075431
 1990 Fit       0.073723
 1991 Fit       0.083567
 1992 Fit       0.065919
 1993 Fit       0.065912
 1994 Fit       0.074374
 1995 Fit       0.073477
 1996 Fit       0.067710
 1997 Fit       0.064628
 1998 Fit       0.062444
 1999 Fit       0.064083
 2000 Fit       0.074815
 2001 Fit       0.076997
 2002 Fit       0.066793
 2003 Fit       0.064483
 2004 Fit       0.074255
 2005 Fit       0.074162
 2006 Fit       0.041310
 2007 Fit       0.051196
 2008 Fit       0.040040
 2009 Fit       0.033121
 2010 Fit       0.036108
 2011 Fit       0.046898
 2012 Fit       0.054463
 2013 Fit       0.056821
 2014 Fit       0.042504
 2015 Fit       0.033162
 2016 Fit       0.029047
 2017 Fit       0.029427
 2018 Fit       0.034549
 2019 Fit       0.044726
 2020 Fit       0.058338
 2021 Fit       0.057638
 2022 Fit       0.041126
 2023 Fit       0.032380
 2024 Fit       0.028595
 2025 Fit       0.028667
 2026 Fit       0.032953
 2027 Fit       0.042420
 2028 Fit       0.052595
 2029 Fit       0.039952
 2030 Fit       0.033615
 2031 Fit       0.031445
 2032 Fit       0.033104
 2033 Fit       0.039477
 2034 Fit       0.051811
 2035 Fit       0.053688
 2036 Fit       0.042995
 2037 Fit       0.039048
 2038 Fit       0.041051
 2039 Fit       0.055728
 2040 Fit       0.051442
 2041 Fit       0.057270
 2042 Fit       0.067188
 2043 Fit       0.072167
 2044 Fit       0.050542
 2045 Fit       0.086624
 2046 Fit       0.050868
 2047 Fit       0.058878
 2048 Fit       0.067484
 2049 Fit       0.077182
 2050 Fit       0.087394
 2051 Fit       0.048975
 2052 Fit       0.090339
 2053 Fit       0.079030
 2054 Fit       0.069755
 2055 Fit       0.063347
 2056 Fit       0.087187
 2057 Fit       0.085958
 2058 Fit       0.081275
 2059 Fit       0.085776
 2060 Fit       0.080329
 2061 Fit       0.068815
 2062 Fit       0.063188
 2063 Fit       0.069532
 2064 Fit       0.078706
 2065 Fit       0.062669
 2066 Fit       0.065461
 2067 Fit       0.069627
 2068 Fit       0.077632
 2069 Fit       0.069541
 2070 Fit       0.077492
 2071 Fit       0.088407
 2072 Fit       0.111123
 2073 Fit       0.093994
 2074 Fit       0.082877
 2075 Fit       0.096696
 2076 Fit       0.087372
 2077 Fit       0.085121
 2078 Fit       0.097988
 2079 Fit       0.095447
 2080 Fit       0.091566
 2081 Fit       0.092589
 2082 Fit       0.098891
 2083 Fit       0.104970
 2084 Fit       0.094512
 2085 Fit       0.102340
 2086 Fit       0.120153
 2087 Fit       0.116208
 2088 Fit       0.110721
 2089 Fit       0.114821
 2090 Fit       0.108353
 2091 Fit       0.114378
 2092 Fit       0.114022
 2093 Fit       0.144509
 2094 Fit       0.125560
 2095 Fit       0.106863
 2096 Fit       0.109247
 2097 Fit       0.117017
 2098 Fit       0.128111
 2099 Fit       0.127889
 2100 Fit       0.115660
 2101 Fit       0.108150
 2102 Fit       0.114727
 2103 Fit       0.098636
 2104 Fit       0.096039
 2105 Fit       0.100082
 2106 Fit       0.108796
 2107 Fit       0.124787
 2108 Fit       0.107072
 2109 Fit       0.105740
 2110 Fit       0.116884
 2111 Fit       0.135353
 2112 Fit       0.117731
 2113 Fit       0.105665
 2114 Fit       0.097212
 2115 Fit       0.105920
 2116 Fit       0.119929
 2117 Fit       0.091377
 2118 Fit       0.098023
 2119 Fit       0.106520
 2120 Fit       0.120764
 2121 Fit       0.100062
 2122 Fit       0.108539
 2123 Fit       0.124019
 2124 Fit       0.103673
 2125 Fit       0.112541
 2126 Fit       0.107147
 2127 Fit       0.117155
 2128 Fit       0.098881
 2129 Fit       0.099907
 2130 Fit       0.100640
 2131 Fit       0.102134
 2132 Fit       0.103500
 2133 Fit       0.105558
 2134 Fit       0.108097
 2135 Fit       0.109439
 2136 Fit       0.112986
 2137 Fit       0.117940
 2138 Fit       0.122421
 2139 Fit       0.122902
 2140 Fit       0.141741
 2141 Fit       0.139355
 2142 Fit       0.138667
 2143 Fit       0.141965
 2144 Fit       0.138646
 2145 Fit       0.139582
 2146 Fit       0.143871
 2147 Fit       0.140733
 2148 Fit       0.124358
 2149 Fit       0.126642
 2150 Fit       0.126265
 2151 Fit       0.129715
 2152 Fit       0.136122
 2153 Fit       0.146363
 2154 Fit       0.114270
 2155 Fit       0.112404
 2156 Fit       0.109215
 2157 Fit       0.112421
 2158 Fit       0.112989
 2159 Fit       0.116787
 2160 Fit       0.054121
 2161 Fit       0.051657
 2162 Fit       0.048264
 2163 Fit       0.059905
 2164 Fit       0.055362
 2165 Fit       0.052921
 2166 Fit       0.050090
 2167 Fit       0.044063
 2168 Fit       0.058685
 2169 Fit       0.054991
 2170 Fit       0.052713
 2171 Fit       0.049686
 2172 Fit       0.055692
 2173 Fit       0.053382
 2174 Fit       0.050955
 2175 Fit       0.045892
 2176 Fit       0.051136
 2177 Fit       0.049752
 2178 Fit       0.049869
 2179 Fit       0.053462
 2180 Fit       0.044003
 2181 Fit       0.050379
 2182 Fit       0.053927
 2183 Fit       0.058201
 2184 Fit       0.045098
 2185 Fit       0.050888
 2186 Fit       0.054462
 2187 Fit       0.059365
 2188 Fit       0.045988
 2189 Fit       0.051376
 2190 Fit       0.055048
 2191 Fit       0.046838
 2192 Fit       0.053701
 2193 Fit       0.044411
 2194 Fit       0.057835
 2195 Fit       0.054835
 2196 Fit       0.050729
 2197 Fit       0.041706
 2198 Fit       0.059089
 2199 Fit       0.056854
 2200 Fit       0.053638
 2201 Fit       0.049205
 2202 Fit       0.059933
 2203 Fit       0.057444
 2204 Fit       0.054012
 2205 Fit       0.049394
 2206 Fit       0.060437
 2207 Fit       0.056432
 2208 Fit       0.051675
 2209 Fit       0.082021
 2210 Fit       0.069684
 2211 Fit       0.093879
 2212 Fit       0.080872
 2213 Fit       0.065292
 2214 Fit       0.106032
 2215 Fit       0.090923
 2216 Fit       0.074249
 2217 Fit       0.079704
 2218 Fit       0.074915
 2219 Fit       0.080266
 2220 Fit       0.086584
 2221 Fit       0.088765
 2222 Fit       0.079451
 2223 Fit       0.083349
 2224 Fit       0.090467
 2225 Fit       0.099169
 2226 Fit       0.083745
 2227 Fit       0.088773
 2228 Fit       0.100692
 2229 Fit       0.082391
 2230 Fit       0.086443
 2231 Fit       0.091693
 2232 Fit       0.075620
 2233 Fit       0.081296
 2234 Fit       0.085556
 2235 Fit       0.091097
 2236 Fit       0.100413
 2237 Fit       0.078254
 2238 Fit       0.081626
 2239 Fit       0.085881
 2240 Fit       0.092034
 2241 Fit       0.102041
 2242 Fit       0.087023
 2243 Fit       0.084852
 2244 Fit       0.089090
 2245 Fit       0.097261
 2246 Fit       0.091678
 2247 Fit       0.102760
 2248 Fit       0.109489
 2249 Fit       0.124078
 2250 Fit       0.104571
 2251 Fit       0.102699
 2252 Fit       0.107763
 2253 Fit       0.119302
 2254 Fit       0.105531
 2255 Fit       0.104122
 2256 Fit       0.110229
 2257 Fit       0.122803
 2258 Fit       0.120397
 2259 Fit       0.105604
 2260 Fit       0.110220
 2261 Fit       0.109649
 2262 Fit       0.076496
 2263 Fit       0.070461
 2264 Fit       0.076996
 2265 Fit       0.084669
 2266 Fit       0.070911
 2267 Fit       0.075405
 2268 Fit       0.081690
 2269 Fit       0.089755
 2270 Fit       0.098251
 2271 Fit       0.072554
 2272 Fit       0.076114
 2273 Fit       0.081979
 2274 Fit       0.090171
 2275 Fit       0.076818
 2276 Fit       0.082814
 2277 Fit       0.058071
 2278 Fit       0.053281
 2279 Fit       0.059776
 2280 Fit       0.064436
 2281 Fit       0.069214
 2282 Fit       0.060935
 2283 Fit       0.061801
 2284 Fit       0.063857
 2285 Fit       0.066135
 2286 Fit       0.068948
 2287 Fit       0.069789
 2288 Fit       0.067109
 2289 Fit       0.067175
 2290 Fit       0.068287
 2291 Fit       0.070076
 2292 Fit       0.068456
 2293 Fit       0.053019
 2294 Fit       0.059794
 2295 Fit       0.067486
 2296 Fit       0.076492
 2297 Fit       0.085453
 2298 Fit       0.049572
 2299 Fit       0.053967
 2300 Fit       0.059970
 2301 Fit       0.067369
 2302 Fit       0.075651
 2303 Fit       0.081732
 2304 Fit       0.080372
 2305 Fit       0.058001
 2306 Fit       0.058531
 2307 Fit       0.064782
 2308 Fit       0.071746
 2309 Fit       0.071419
 2310 Fit       0.064091
 2311 Fit       0.064586
 2312 Fit       0.063025
 2313 Fit       0.056262
 2314 Fit       0.056994
 2315 Fit       0.063533
 2316 Fit       0.070014
 2317 Fit       0.069261
 2318 Fit       0.052683
 2319 Fit       0.059208
 2320 Fit       0.066533
 2321 Fit       0.074271
 2322 Fit       0.078547
 2323 Fit       0.052748
 2324 Fit       0.059549
 2325 Fit       0.066986
 2326 Fit       0.075573
 2327 Fit       0.083628
 2328 Fit       0.059958
 2329 Fit       0.067927
 2330 Fit       0.077296
 2331 Fit       0.091218
 2332 Fit       0.083376
 2333 Fit       0.103199
 2334 Fit       0.098673
 2335 Fit       0.087416
 2336 Fit       0.070410
 2337 Fit       0.110886
 2338 Fit       0.099413
 2339 Fit       0.086386
 2340 Fit       0.069211
 2341 Fit       0.118206
 2342 Fit       0.104089
 2343 Fit       0.090593
 2344 Fit       0.076192
 2345 Fit       0.130135
 2346 Fit       0.134240
 2347 Fit       0.133699
 2348 Fit       0.135970
 -----------------------------------------------------------------
 Leave Link  602 at Mon Mar 14 11:43:42 2016, MaxMem=  655360000 cpu:       3.5
 (Enter /software/g09/g09/l9999.exe)

 Test job not archived.
 1\1\GINC-DAITARN3\SP\RHF\6-31G(d)\C26H29F1N5O5(1+)\SULLOA\14-Mar-2016\
 0\\#P HF/6-31G* SCF=Tight Pop=(MK) IOP(6/33=2)\\31N\\1,1\C,0,42.51,32.
 428,28.66\C,0,41.48,31.508,28.54\C,0,41.257,31.64,30.931\C,0,39.783,30
 .098,29.632\C,0,38.347,30.531,29.686\C,0,37.422,29.324,29.44\C,0,37.70
 1,28.224,30.479\C,0,36.779,27.046,30.252\C,0,36.742,27.613,27.836\C,0,
 35.052,28.635,29.327\N,0,34.933,26.203,28.895\C,0,33.928,26.014,29.993
 \C,0,32.833,25.047,29.714\C,0,42.772,32.294,26.277\F,0,40.656,31.302,3
 2.096\N,0,41.089,31.,27.354\O,0,41.373,30.932,24.978\C,0,43.153,32.798
 ,27.5\C,0,41.724,31.408,26.247\N,0,42.928,32.929,29.83\C,0,42.295,32.5
 36,30.938\C,0,40.849,31.129,29.712\C,0,35.868,27.367,29.071\O,0,37.565
 ,28.783,28.08\C,0,35.983,29.793,29.627\N,0,32.038,25.305,28.664\C,0,31
 .057,24.422,28.421\C,0,30.831,23.307,29.207\C,0,31.648,23.069,30.291\C
 ,0,32.67,23.959,30.554\O,0,38.192,31.021,31.017\N,0,30.192,24.678,27.3
 54\C,0,28.987,24.032,27.314\C,0,28.645,23.001,28.335\O,0,29.802,22.433
 ,28.926\O,0,28.198,24.285,26.423\C,0,40.287,30.,25.046\H,0,39.92,29.49
 8,30.508\H,0,39.901,29.662,28.662\H,0,38.098,31.263,28.946\H,0,37.445,
 28.633,31.435\H,0,38.695,27.874,30.295\H,0,36.154,26.967,31.116\H,0,37
 .393,26.22,29.958\H,0,37.404,26.777,27.751\H,0,36.082,27.858,27.03\H,0
 ,34.483,28.46,30.216\H,0,34.553,28.87,28.41\H,0,35.493,25.375,28.857\H
 ,0,34.477,25.593,30.809\H,0,33.447,26.963,30.104\H,0,43.277,32.584,25.
 379\H,0,43.968,33.491,27.55\H,0,42.613,32.94,31.877\H,0,35.864,30.03,3
 0.663\H,0,35.8,30.542,28.883\H,0,31.493,22.214,30.915\H,0,33.321,23.81
 2,31.39\H,0,39.035,30.978,31.475\H,0,28.13,23.516,29.12\H,0,28.157,22.
 207,27.808\H,0,39.985,29.876,26.066\H,0,40.601,29.056,24.651\H,0,39.46
 2,30.37,24.473\H,0,30.449,25.322,26.634\H,0,34.423,26.359,28.049\\Vers
 ion=AM64L-G09RevA.02\State=1-A\HF=-1747.1505759\RMSD=5.199e-09\Dipole=
 -2.4330008,-4.0870278,1.3723918\Quadrupole=7.6556406,9.705994,-17.3616
 347,32.6133152,-16.4475212,-14.0189389\PG=C01 [X(C26H29F1N5O5)]\\@


 The best way to pay for a lovely moment is to enjoy it.
 -- Richard Bach
 Job cpu time:  0 days  0 hours 22 minutes 50.8 seconds.
 File lengths (MBytes):  RWF=    202 Int=      0 D2E=      0 Chk=     14 Scr=      1
 Normal termination of Gaussian 09 at Mon Mar 14 11:43:43 2016.
